      20
 i =      113, E =      -135.3137781732
  O         0.4444084987        0.1423323263        0.1770045713
  C         1.0248558954        1.1525799999       -0.4379881942
  O         1.7775907966        0.7906189634       -1.5156834073
  C         1.8026857524       -0.6841911362       -1.5464955111
  C         0.9687403462       -1.0791324670       -0.3472331270
  O         0.8609063346        2.2723002324       -0.0074702308
  H         0.1183742456       -1.7348298391       -0.5528284019
  H         1.3354649618       -1.0483827771       -2.5045711562
  H         2.8586252974       -1.0065383053       -1.5132583975
  H         1.5851012893       -1.4999650597        0.4844029591
  O         6.8128313564        0.2305764513        0.7725192509
  C         6.1033738939        0.8058177951       -0.2261140147
  O         5.3171997637       -0.0448982279       -0.8755620088
  C         5.7357247970       -1.3799947599       -0.5365672398
  C         6.5830109599       -1.2194953416        0.6914022563
  O         6.1205151742        1.9797297464       -0.5514697769
  H         6.0309305404       -1.5390425820        1.6216320677
  H         4.8453485446       -2.0096351539       -0.4483911129
  H         6.3622767703       -1.7158101531       -1.4019576104
  H         7.5534798334       -1.7409671644        0.6653836169
