     500
 i =      395, E =     -3382.7754022682
  O         4.4016882293       18.6735245813       10.4103384105
  C         5.0985622679       17.5468704983       10.0818882234
  O         4.3688517665       16.7020656410        9.3060573051
  C         3.0208842284       17.2463998268        9.1133226438
  C         2.9957715767       18.5031612103       10.0102264207
  O         6.2506852257       17.3289302597       10.4211465100
  H         2.6741989963       19.4193451574        9.4832772699
  H         2.8819838636       17.4748001855        8.0399667173
  H         2.3025462614       16.4746593853        9.4379442816
  H         2.3997734500       18.3476555388       10.9292846249
  O         1.1221881477       11.9924982611       10.5067973234
  C         2.2258298476       12.6451054295       10.0604803533
  O         1.9877957731       13.9814873130        9.8727760464
  C         0.5452048772       14.2125255180       10.0239053239
  C         0.0726256607       12.9729197839       10.7995557223
  O         3.3036075523       12.1115843908        9.8557148618
  H         0.0458767920       13.1231304487       11.8969569558
  H         0.4102574906       15.1592675215       10.5798107840
  H         0.0960017705       14.2605326672        9.0125604764
  H        -0.8941967793       12.5830883304       10.4368131377
  O        14.1798207201        3.8521001786       11.6373342568
  C        13.3993340988        4.5699737844       12.4923457510
  O        12.9070700938        3.8006462554       13.5063250718
  C        13.3042481045        2.4014378999       13.2893069707
  C        14.3553014787        2.4928032649       12.1649867745
  O        13.1652330644        5.7637663865       12.3614039890
  H        15.3940513342        2.4087574008       12.5385969857
  H        13.7225702186        2.0021929281       14.2309249482
  H        12.4040779741        1.8223591381       13.0050661388
  H        14.1781921516        1.7749579460       11.3459564154
  O         8.3171309751       13.7048152975        8.8566001262
  C         7.8484862902       13.3295704065       10.0779188177
  O         6.4884785078       13.2603053727       10.1049947992
  C         5.9646881760       13.6178037303        8.7776882762
  C         7.2217025836       13.5826442229        7.8859116441
  O         8.5609053274       13.0992130806       11.0425119539
  H         7.3422490820       12.6138128984        7.3609899556
  H         5.2066247167       12.8612140553        8.5090712400
  H         5.5099122290       14.6246785037        8.8638805235
  H         7.2931815945       14.4264053072        7.1755621970
  O         6.0660258879        2.9422099353        6.6767885107
  C         5.6029823627        4.0392124246        6.0131046301
  O         5.2485935763        5.0386236578        6.8615692976
  C         5.2353656858        4.5091989877        8.2279533158
  C         6.1175561493        3.2505295243        8.1121242792
  O         5.5396951119        4.1236702882        4.7957322928
  H         7.1805467634        3.4224739112        8.3741581302
  H         5.6546493206        5.2797667979        8.9002879980
  H         4.1841740387        4.2870315661        8.4975257051
  H         5.7120642803        2.3878975305        8.6719108095
  O         1.1028579813        5.0801427130       16.8046468607
  C         0.9842781300        5.4558795236       18.1061240268
  O         0.1610919273        6.5345414400       18.2449490982
  C        -0.5268325677        6.7585505007       16.9657961111
  C         0.3904532590        6.0492732404       15.9604710459
  O         1.5429719808        4.8957167799       19.0381537062
  H        -0.1676535481        5.4935870338       15.1880615356
  H        -1.5246855968        6.2788004981       17.0269639021
  H        -0.6333308605        7.8418081470       16.7785601964
  H         1.1325456801        6.7254121641       15.4933466786
  O         8.5661271171       14.6826168418       18.3487131390
  C         9.4492203643       15.4445571865       17.6418097868
  O         9.3657782109       16.7550258120       17.9582209422
  C         8.3915139995       16.9545853134       19.0339107773
  C         7.8509847010       15.5273067703       19.3103709250
  O        10.2115123241       14.9873423822       16.7991816665
  H         8.0898329898       15.1645356036       20.3277310663
  H         8.9256255515       17.3921477146       19.8972044349
  H         7.6209836644       17.6533880641       18.6572309028
  H         6.7666912219       15.4207235996       19.1133670455
  O         0.0303378615       17.8794049239        8.9434287473
  C        -0.5334855189       18.5544811500        9.9985428953
  O        -1.7698683564       18.0708385659       10.2965049838
  C        -2.0491276840       16.9130441679        9.4398770628
  C        -1.0260769291       17.0747761263        8.3078371808
  O         0.0039796308       19.4801064697       10.5834872679
  H        -0.5964371102       16.1210270730        7.9524295093
  H        -1.8857262427       15.9963655926       10.0357794887
  H        -3.1027340937       16.9747249071        9.1182265765
  H        -1.4201209335       17.6566806018        7.4506756546
  O         7.7201582091       12.6120814266       15.9480330515
  C         6.6095013791       13.3376725605       16.2098350018
  O         6.0310846317       12.9937892670       17.3927493365
  C         6.7890482641       11.8948159482       18.0018592162
  C         8.0463938103       11.7880851663       17.1162797502
  O         6.1726846554       14.2119349456       15.4728352990
  H         8.9316111464       12.2368435786       17.5971582549
  H         7.0230307137       12.1857407913       19.0423349537
  H         6.1476943614       10.9939140719       17.9626187194
  H         8.2707537748       10.7694080733       16.7588796673
  O         4.3524107044        9.3960105928        4.9488723696
  C         5.3433252254       10.1066168690        5.5672508471
  O         6.4229074653       10.2914051511        4.7523191204
  C         6.1203499296        9.7314769605        3.4270689768
  C         4.8510039879        8.8930911302        3.6690413483
  O         5.2551309870       10.5241529160        6.7088320633
  H         4.0680969226        9.0542124376        2.9086884771
  H         5.9436764123       10.5850465616        2.7463688080
  H         6.9827081336        9.1247117052        3.0988155191
  H         5.0790888484        7.8139803931        3.7817337716
  O         2.4180295169       17.3301455131       17.7945165591
  C         3.1002947166       17.0751259490       18.9381550821
  O         4.3014230049       16.4906307112       18.7029590626
  C         4.5206629543       16.3781610415       17.2578448785
  C         3.2817223426       17.0696042163       16.6407787367
  O         2.6621728808       17.3136258033       20.0549367899
  H         3.5012422819       18.0490586404       16.1749158403
  H         5.4608899293       16.9141218496       17.0263577037
  H         4.5920282694       15.3048686195       17.0076084138
  H         2.7152653575       16.4152473942       15.9527795271
  O         1.8372434135        2.4266927552        4.6353855756
  C         2.2713950156        1.9693512911        5.8514841790
  O         1.7458476061        0.7419973587        6.1416901880
  C         1.0000998801        0.2484915128        4.9774021340
  C         0.7888437332        1.5229169335        4.1407638863
  O         3.0348173036        2.5693009880        6.5879460197
  H         0.9631523630        1.3562528420        3.0628578839
  H         1.6312004968       -0.4982265928        4.4583402849
  H         0.0561875354       -0.2050922070        5.3304649910
  H        -0.1925956201        1.9983663067        4.3372908086
  O         6.6384571562        7.8440582881        8.2749928311
  C         7.1566442287        9.0545365301        8.6406752146
  O         8.1088046190        9.4806522596        7.7737858749
  C         8.3987939122        8.4206455923        6.8087509330
  C         7.2276770268        7.4369891580        6.9972517218
  O         6.8032123830        9.6701876556        9.6334836510
  H         6.4507446736        7.5206888325        6.2145907027
  H         8.4334087859        8.8641216106        5.7983091132
  H         9.3772162995        7.9758763970        7.0774260013
  H         7.5540080305        6.3850346911        7.0731005337
  O        10.7361291491       15.3103619284       13.6485906612
  C        10.6391009428       16.6078444355       14.0664830776
  O         9.3331202875       17.0072335594       14.1843986096
  C         8.4707710712       15.9187125671       13.7232201847
  C         9.4063678121       14.6971912875       13.7140712495
  O        11.5941669604       17.3253384129       14.2981354126
  H         9.3443299708       14.1124548065       14.6523175376
  H         7.6330446035       15.8025569504       14.4350126767
  H         8.0958100971       16.1820895352       12.7107862779
  H         9.2710907124       14.0529433398       12.8282730313
  O        16.0695864951        2.3003730433        6.4680621217
  C        14.7579406797        2.2712679500        6.8716345649
  O        14.5055530642        3.2230774492        7.8188169959
  C        15.7767319416        3.8350353573        8.2291038434
  C        16.7296352185        3.4579808433        7.0791221381
  O        13.9347926858        1.4828445594        6.4489327018
  H        16.8068539969        4.2492939804        6.3071258247
  H        15.6193818787        4.9218760085        8.3376490563
  H        16.0702372274        3.4033963865        9.2066836239
  H        17.7317443050        3.1507465760        7.4237523736
  O        11.0947329017        4.8889954949        7.0927844928
  C        10.5002779796        4.2517788397        8.1284308885
  O        11.1085604929        4.5203829536        9.3134463024
  C        12.2169240956        5.4599997433        9.1059298776
  C        12.2586734886        5.6446308507        7.5716174519
  O         9.5185636768        3.5270596194        8.0186633988
  H        12.1489197275        6.6954366243        7.2484874486
  H        11.9897004742        6.3959169102        9.6479079616
  H        13.1305706884        4.9984793300        9.5221840419
  H        13.1568255629        5.1974455663        7.1078995464
  O        -1.1005915488        7.7379380811       13.6026298846
  C        -0.7653324826        9.0494274251       13.8242113573
  O        -0.7307987145        9.7560405863       12.6593097557
  C        -0.9013210026        8.8441607347       11.5393275728
  C        -1.4703972064        7.5698472111       12.1955576636
  O        -0.5364554669        9.5223807488       14.9201906991
  H        -2.5749262932        7.4895178949       12.1325572379
  H        -1.5906952045        9.3162996177       10.8132789554
  H         0.0919428207        8.6782148118       11.0725161309
  H        -1.0064594925        6.6422598388       11.8151373883
  O        11.7127009479        9.6915580019       14.1027922695
  C        10.4757955481       10.0954534027       14.5199739781
  O         9.9024386034       10.9667894104       13.6447670464
  C        10.9030751592       11.3663198713       12.6486469807
  C        11.9937136779       10.2841327930       12.7848575969
  O         9.9617052752        9.7396697112       15.5677936572
  H        11.8942802696        9.4850811427       12.0254301807
  H        10.4039883146       11.3825377019       11.6651883185
  H        11.2659195783       12.3803584354       12.9128840426
  H        13.0204691947       10.6988678895       12.8037814730
  O         9.1244068732        7.1648699387        9.8785676118
  C         9.5846827107        8.0471189999       10.8213493517
  O         9.5795909492        7.4936596866       12.0661563280
  C         9.2729728727        6.0618418577       11.9317540731
  C         8.5362260946        6.0184438139       10.5885511972
  O         9.9425254040        9.1871106312       10.5860665611
  H         8.7338298601        5.1024118143       10.0049068706
  H        10.2377779627        5.5150782952       11.9084601871
  H         8.6729591883        5.7462275720       12.8038144239
  H         7.4450338538        6.1937944558       10.6850147740
  O         2.2992969165        6.4762585727        6.1386124682
  C         1.5741337609        7.6159158054        6.0454664457
  O         1.2041474001        7.8920100010        4.7570357994
  C         1.6120522462        6.7821323480        3.8962825611
  C         2.5361781541        5.9321192205        4.8026287402
  O         1.2740995426        8.3191899304        6.9977789374
  H         2.2759437819        4.8581012444        4.8178978999
  H         0.7007085503        6.2422351755        3.5746411323
  H         2.1167099053        7.1973514258        3.0052209331
  H         3.6159068514        6.0389528531        4.5791029151
  O         6.8012024837       17.1635004867        6.2311922991
  C         7.4129190872       17.5858939859        5.0878900335
  O         6.5215631458       17.7960943849        4.0775890383
  C         5.1601546093       17.7355958329        4.6074383304
  C         5.3498037601       17.1982919499        6.0470878116
  O         8.6172614143       17.7562148392        4.9724816200
  H         4.9310562314       17.8819364468        6.8103948398
  H         4.7571900936       18.7687077306        4.5926698096
  H         4.5593977615       17.0752312996        3.9560645636
  H         4.9709002463       16.1678242099        6.1721030543
  O         0.9921477537       12.6889839405       15.7640744229
  C         1.4141430528       13.8446785124       16.3405039516
  O         0.6337437519       14.9050575799       15.9937181369
  C        -0.3213833984       14.4601294105       14.9563803133
  C        -0.3273903792       12.9362564817       15.1487097544
  O         2.3774699792       13.9258434003       17.0945529270
  H        -1.1027440798       12.5934083538       15.8636590886
  H        -1.2935710351       14.9494295518       15.1430579263
  H         0.0874097958       14.7822978913       13.9785860796
  H        -0.4038017617       12.3457007937       14.2204367567
  O        11.7092322135       15.7719291588        4.5652536780
  C        11.3628397062       16.1897936152        3.3215155797
  O        11.5119572304       17.5297833572        3.1671942605
  C        11.8354432598       18.1179755281        4.4771331894
  C        12.3304510904       16.9030079012        5.2777040756
  O        10.9739217383       15.4406766870        2.4305143334
  H        13.4307638576       16.7811429442        5.2248102163
  H        12.6062159925       18.8908250254        4.3280990347
  H        10.9004968712       18.5507141974        4.8803982303
  H        12.0006126478       16.8722025347        6.3295618568
  O         5.6284476589       11.2254908482       13.9435989760
  C         5.9758497113       10.1489963235       14.7016389238
  O         6.8198390903        9.3134029486       14.0510367477
  C         6.9660845208        9.7686555138       12.6649719717
  C         6.4344625893       11.2100783077       12.7136708564
  O         5.5771178532        9.9584103680       15.8421793915
  H         7.2421897078       11.9584990519       12.8258443057
  H         8.0322381530        9.7107774405       12.3883457319
  H         6.3591081327        9.1058750084       12.0196473355
  H         5.7867126697       11.4658245760       11.8559336045
  O         8.5541808349        4.9532413945        5.1871889919
  C         8.1281100108        5.6076331128        4.0735469824
  O         8.1155548215        4.7959172552        2.9770367872
  C         8.4070738577        3.4201632441        3.4020253029
  C         8.9919929532        3.6036367669        4.8161469777
  O         7.8136368000        6.7892545208        4.0540914174
  H         8.5912148625        2.8982671755        5.5646137142
  H         7.4517512411        2.8586045731        3.4071861381
  H         9.1228457472        2.9793270326        2.6853140443
  H        10.0994175778        3.5966995041        4.8358221185
  O         5.0864642414        3.0546046030       13.1895939884
  C         5.8487016050        3.6414001193       12.2233631253
  O         6.9801398566        2.9403359573       11.9721270921
  C         7.0727042638        1.8048660611       12.8950841694
  C         5.6835772630        1.7737387952       13.5759083863
  O         5.5418819366        4.6848165060       11.6609163245
  H         5.0292975610        0.9722378197       13.1782014454
  H         7.2711713172        0.9032903451       12.2876975960
  H         7.9028288525        2.0078785800       13.5985239267
  H         5.7325971610        1.7422931496       14.6818962828
  O        16.4199315919        2.1988291460       14.9420352857
  C        16.0762552600        3.0449904988       15.9425196390
  O        16.5803514107        2.6494401544       17.1455449968
  C        17.2729695218        1.3630970842       16.9821625189
  C        17.3628554936        1.1914759292       15.4500957052
  O        15.3965259173        4.0522126366       15.7877855939
  H        18.3632273643        1.4465219384       15.0549061652
  H        18.2669577726        1.4381573547       17.4593894268
  H        16.6635020036        0.5861118391       17.4839198764
  H        17.0157136462        0.2045649365       15.0997836840
  O         3.9038125946       15.9211394687       12.2570812795
  C         2.6189902925       15.6237495505       12.5938525696
  O         2.5132908520       14.3858745791       13.1586646144
  C         3.8157340263       13.7097964735       13.1183815749
  C         4.7873527938       14.8154141711       12.6435864768
  O         1.6737370712       16.3779695136       12.4210032114
  H         5.4438554240       15.1688736320       13.4591793537
  H         4.0510122475       13.3371874891       14.1312960378
  H         3.7362983125       12.8645170704       12.4083996343
  H         5.3805654531       14.5235006208       11.7578400383
  O        11.8926873395        7.1869946494        4.6729622886
  C        12.7480870681        8.2368222489        4.7750873913
  O        13.0729514763        8.7465705613        3.5527598923
  C        12.4655704127        7.9190877987        2.5078032793
  C        11.4566439344        7.0453378763        3.2822385112
  O        13.1732586272        8.6716574080        5.8362453414
  H        10.4167147764        7.4222121586        3.2127867964
  H        12.0023666319        8.5869830876        1.7618331511
  H        13.2787182069        7.3368445209        2.0348700383
  H        11.5061156196        5.9716866722        3.0163069801
  O         3.6336588996       14.6393453268        3.5802519942
  C         4.8464057754       14.0536812753        3.7631199054
  O         4.9834129724       12.9205551262        3.0138078293
  C         3.8378149447       12.7949552045        2.1051999050
  C         2.8545034505       13.8701518321        2.6116866699
  O         5.7028849534       14.4843212512        4.5180441604
  H         2.5359524257       14.5500909889        1.8025964498
  H         4.1868302692       12.9909066999        1.0754609908
  H         3.4398771204       11.7702200707        2.2047624783
  H         1.9879021143       13.4357121331        3.1432284855
  O         0.8541139865       12.1770849528        7.1918782108
  C         0.7062380554       13.2287706092        6.3464574369
  O         1.7504427349       13.3415539392        5.4811384754
  C         2.7729632794       12.3510769474        5.8347014967
  C         2.0163670144       11.3808566963        6.7535733090
  O        -0.2431085937       14.0005715739        6.3554715581
  H         1.6303345667       10.4933543277        6.2213605415
  H         3.1130543712       11.8624596746        4.9050789091
  H         3.6063193450       12.8824925580        6.3356509710
  H         2.5935203084       11.0820165432        7.6451268500
  O         6.1531517236        3.5695075636       18.3305188862
  C         5.8179966496        2.2877715451       18.0256111268
  O         4.7065720573        1.8774612452       18.6977783584
  C         4.0996200077        3.0213713341       19.3787076721
  C         5.1866223973        4.1159690016       19.2882146224
  O         6.4477497637        1.5727393733       17.2572825157
  H         4.8072464626        5.0759727056       18.8889526481
  H         3.1726197393        3.2905752711       18.8405759081
  H         3.8669526441        2.7257816853       20.4194649012
  H         5.7132208311        4.2897918221       20.2422302860
  O        12.6069459420       11.9887380447        0.9863964747
  C        13.8768205047       12.3971037331        0.7232638718
  O        14.0966165837       12.5717835820       -0.6031925905
  C        12.9196112953       12.1511477110       -1.3565438654
  C        11.8458003451       11.9299307136       -0.2636907574
  O        14.7167493710       12.6173000727        1.5884633898
  H        11.0941531392       12.7445507950       -0.2384718743
  H        12.6607712567       12.9684488951       -2.0571212080
  H        13.1808362354       11.2271515050       -1.9067305986
  H        11.3576249653       10.9406135527       -0.3298167381
  O         7.7646073376        6.4560446945       -1.9224675536
  C         8.7824070027        5.5619921639       -1.8068943316
  O         9.4967979234        5.7482595920       -0.6629633303
  C         9.0633740576        7.0029571185       -0.0302399080
  C         7.7159180345        7.2991259920       -0.7201266208
  O         9.0267832898        4.6954559279       -2.6348794739
  H         6.8344230679        6.9919999326       -0.1239968345
  H         8.9676331741        6.8276807069        1.0557012007
  H         9.8327963704        7.7706389285       -0.2434676023
  H         7.6003835543        8.3455597906       -1.0533018447
  O        -0.6068017148       10.5901980238        3.8713872398
  C         0.4635423351       10.3633998445        3.0650568457
  O         0.1735183300        9.4951004217        2.0582367659
  C        -1.1874299620        8.9749781562        2.2389883582
  C        -1.7713272918        9.8517818514        3.3691822117
  O         1.5509831713       10.8991464009        3.2181616376
  H        -2.5069056201       10.5933262070        3.0016980636
  H        -1.7336771795        9.0900416151        1.2839059253
  H        -1.1070984323        7.9075995979        2.5128545676
  H        -2.1930671143        9.2562596145        4.1987096098
  O        10.5235134657       -0.5589501616       10.6539217204
  C        11.6750202984       -0.1160402282       10.0698131914
  O        11.4945115825        0.1740275952        8.7539744483
  C        10.0627313895        0.0592419884        8.4397697167
  C         9.5482956915       -0.8268793331        9.5824280229
  O        12.7386406791       -0.0017167596       10.6627061885
  H         8.5404820821       -0.5559334880        9.9451068689
  H         9.6405775422        1.0853546827        8.4391081459
  H         9.9523707822       -0.4060381431        7.4430132317
  H         9.6060749815       -1.9055968514        9.3322767802
  O        14.4629884224       14.5368208775        6.7797402031
  C        14.9502715191       13.6721535048        7.7111621822
  O        14.9307498498       12.3848141736        7.2686376793
  C        14.6078252876       12.3822708183        5.8471235553
  C        13.9659128233       13.7694490276        5.6397837518
  O        15.3338108807       14.0042943926        8.8214636083
  H        14.2969631424       14.2792243159        4.7169239256
  H        15.5567415332       12.2582986206        5.2858531598
  H        13.9318073493       11.5266309784        5.6537980263
  H        12.8584668483       13.7696776911        5.6899385841
  O         9.5862721119       11.4865385620        2.1465759215
  C         9.6680051134       10.1990677556        2.5907265199
  O        10.4101765979       10.1068611434        3.7358623283
  C        11.0863958796       11.3983934028        3.9374905039
  C        10.1885375998       12.3668843495        3.1585678668
  O         9.1409016781        9.2515529614        2.0315028471
  H         9.3664990924       12.7797644774        3.7780212295
  H        11.1180133548       11.6072204707        5.0218918378
  H        12.1011380286       11.3097512627        3.4990305595
  H        10.7273557364       13.1826130185        2.6457948180
  O        13.5480466141       17.7531294512       16.7935552314
  C        14.2854840870       16.7884305434       16.1756589411
  O        14.2530558480       15.6070488815       16.8568796030
  C        13.2772216246       15.7065985516       17.9408459407
  C        13.0058181509       17.2230050247       18.0495182817
  O        14.9183163431       16.9576728200       15.1477510493
  H        11.9279414380       17.4601693534       18.1045130990
  H        12.3721112078       15.1413937692       17.6478582474
  H        13.7294300312       15.2691781942       18.8499936230
  H        13.5488369670       17.7088593850       18.8836584957
  O        12.5959868755        7.5582737265       17.0143945671
  C        13.6314832154        8.4435025497       16.9064813871
  O        14.4378477752        8.1632821299       15.8514560261
  C        13.8219227442        7.0891308677       15.0590783512
  C        12.7910344644        6.4856012179       16.0282143825
  O        13.8156753972        9.3693088372       17.6839426426
  H        11.8158716403        6.2637691311       15.5601623864
  H        13.3558539362        7.5458162341       14.1669569325
  H        14.6129819050        6.3778931893       14.7657646564
  H        13.1700400377        5.5922333478       16.5642578431
  O        15.5729655158        4.2305700830        3.9948710394
  C        15.4273581614        5.5589751769        3.7291356842
  O        15.1115612962        5.7818010824        2.4197931965
  C        14.8721224545        4.4868597041        1.7655324904
  C        15.5571707701        3.4982676308        2.7182110639
  O        15.5680845389        6.4442908828        4.5572781007
  H        15.0112600474        2.5513131830        2.8650238684
  H        13.7780956432        4.3362840691        1.7059138816
  H        15.3207703533        4.5079141158        0.7558923864
  H        16.6095462903        3.2964718900        2.4311034914
  O        12.1475006790        3.4944821376       17.7349822013
  C        11.5037924213        2.9421255222       18.8030039545
  O        10.5709228434        2.0344109497       18.4179432417
  C        10.3977190716        2.1240614884       16.9576109294
  C        11.6885190053        2.8261433416       16.5071952491
  O        11.7477832651        3.2303682902       19.9687566066
  H        12.4781896536        2.1158908225       16.1957004830
  H        10.2902095150        1.0983704425       16.5606700661
  H         9.4880235857        2.7237180217       16.7563482407
  H        11.5188706005        3.5960207786       15.7350707619
  O        14.9977130350       14.5673375942       12.8727956394
  C        14.5580701299       13.3239124451       12.5284572043
  O        13.4533793035       13.3741289675       11.7309538883
  C        13.1856679523       14.7775743070       11.3785287538
  C        14.0037983647       15.5588446717       12.4219422817
  O        15.0934201613       12.2876503915       12.8954561821
  H        14.5405069427       16.4301964752       12.0125877448
  H        13.5269515104       14.9187596320       10.3353071733
  H        12.0994172086       14.9537343426       11.4650660605
  H        13.4087283872       15.8763133238       13.2992323695
  O         2.9558140212        8.2264609416       16.8520687123
  C         3.8439771382        8.5098751088       17.8403153044
  O         3.7727802888        9.8129627372       18.2321801197
  C         2.8993389222       10.5406379702       17.2994606703
  C         2.1189114257        9.4119809474       16.6072972981
  O         4.5963172036        7.6850980277       18.3407552428
  H         1.1365424032        9.2274696923       17.0820321547
  H         2.2554739703       11.2187757017       17.8852260552
  H         3.5533456923       11.1115715865       16.6146582154
  H         2.0032254263        9.5321004717       15.5168877281
  O         4.2988234530        3.7833543291       16.0973633770
  C         3.2048479774        3.4623334355       15.3554734385
  O         2.7880139441        4.5044813665       14.5842269227
  C         3.7735635981        5.5879166723       14.6753947525
  C         4.6296318462        5.1940601648       15.8930018997
  O         2.6737630125        2.3625092966       15.3768218409
  H         5.7161198252        5.2714479114       15.7113332529
  H         4.3445257683        5.5982106593       13.7253952137
  H         3.2361159884        6.5431674523       14.8096813854
  H         4.3527251420        5.7544232501       16.8074368646
  O        14.8524732594        9.6379043029        8.2924760786
  C        14.1662710236        8.5453112164        8.7202487655
  O        14.8455409481        7.3901114456        8.4644554591
  C        16.0290350797        7.6893980431        7.6449423432
  C        16.1216023783        9.2323641488        7.6910523110
  O        13.0908330283        8.5977542965        9.2936716940
  H        16.9460340165        9.6101985994        8.3253435194
  H        16.9015944965        7.1811140840        8.0972167665
  H        15.8375403032        7.3020012074        6.6269623026
  H        16.1945830731        9.6949357970        6.6902186210