    1000
 i =      588, E =     -6765.5914536528
  O         4.4384825472       18.6707799272       10.4135865009
  C         5.1281493409       17.5415813325       10.0800035732
  O         4.3846683744       16.6967413476        9.3157486014
  C         3.0394066903       17.2553895813        9.1356370074
  C         3.0201813141       18.4824362604       10.0712710411
  O         6.2837404359       17.3208439733       10.4093581387
  H         2.6557200236       19.4055068530        9.5868074521
  H         2.9060232272       17.5191023956        8.0690173229
  H         2.3145168132       16.4780225730        9.4299145583
  H         2.4676089903       18.2870095390       11.0104421068
  O         1.2018197742       11.9845868185       10.4941479144
  C         2.3030254697       12.6468981669       10.0593680273
  O         2.0582424645       13.9835773556        9.8833931360
  C         0.6135142170       14.2057689046       10.0339221397
  C         0.1483661472       12.9575752672       10.7993975791
  O         3.3843370575       12.1200081216        9.8553870178
  H         0.1251329120       13.0976194784       11.8979841912
  H         0.4690634381       15.1471358470       10.5965582632
  H         0.1663377954       14.2601686703        9.0219735210
  H        -0.8181420556       12.5664474944       10.4379842995
  O        14.2421484264        3.8302455714       11.6127328604
  C        13.4765610887        4.5687916991       12.4603174215
  O        12.9307348277        3.8092730385       13.4503265965
  C        13.2834298146        2.3984756455       13.2321984698
  C        14.3515870813        2.4588108692       12.1218691219
  O        13.2973697564        5.7717418307       12.3421042523
  H        15.3823246160        2.3260213972       12.5029557762
  H        13.6769786453        1.9834369423       14.1779103740
  H        12.3684453781        1.8499418010       12.9378057970
  H        14.1520034566        1.7610157377       11.2913608676
  O         8.3727287395       13.6128644878        8.8676309685
  C         7.8815309605       13.2988167163       10.0980197736
  O         6.5213500853       13.2583592200       10.1066749757
  C         6.0211420391       13.5843906591        8.7633515633
  C         7.2861009282       13.4913933853        7.8883298398
  O         8.5755048605       13.0930042035       11.0819612283
  H         7.3872119840       12.5058075289        7.3918130286
  H         5.2500650080       12.8361855346        8.5094524989
  H         5.5867823129       14.6025569475        8.8112819886
  H         7.3872580509       14.3129945232        7.1557141783
  O         6.0311816355        2.9075259189        6.5135399375
  C         5.5789455913        4.0273116340        5.8759151580
  O         5.2808707858        5.0274780796        6.7459204404
  C         5.2472631487        4.4684915487        8.1008216651
  C         6.0835623738        3.1806755782        7.9574876965
  O         5.4787453644        4.1249586436        4.6609594827
  H         7.1493373821        3.3080126045        8.2314497896
  H         5.6890190296        5.2089134324        8.7928058223
  H         4.1883052358        4.2759029463        8.3622042659
  H         5.6389810397        2.3214604927        8.4926856864
  O         1.1292082405        5.0896603219       16.8020693838
  C         1.0202303290        5.4565550342       18.1067895915
  O         0.1820816467        6.5266226170       18.2625373061
  C        -0.5093164917        6.7577201022       16.9843141436
  C         0.4139092611        6.0673656369       15.9706180681
  O         1.5963504071        4.8978547285       19.0285671576
  H        -0.1416204244        5.5228196830       15.1883000817
  H        -1.5042265971        6.2701948055       17.0374246673
  H        -0.6261009194        7.8419288289       16.8084020121
  H         1.1559166005        6.7510877387       15.5141554308
  O         8.5779383270       14.6930273511       18.3525571710
  C         9.4073939565       15.5153618043       17.6526148758
  O         9.2464156481       16.8175264428       17.9819630435
  C         8.3042150561       16.9355950108       19.0983974074
  C         7.7844430550       15.4886305634       19.2960868349
  O        10.1906581659       15.1102514096       16.8031307387
  H         7.9678108380       15.0982753088       20.3140286948
  H         8.8610014606       17.3208306369       19.9723079593
  H         7.5141110247       17.6444247081       18.7907221244
  H         6.7173014495       15.3650982683       19.0261572843
  O        -0.0127194931       17.8440093626        8.9352368321
  C        -0.5571028843       18.5152408488        9.9975521607
  O        -1.8033756789       18.0580901354       10.2929352924
  C        -2.0922565696       16.8961729089        9.4449903589
  C        -1.0777970945       17.0482747465        8.3049406839
  O         0.0034455896       19.4184618444       10.5923578609
  H        -0.6590383478       16.0900016465        7.9488077874
  H        -1.9203199884       15.9828857598       10.0441006735
  H        -3.1487591663       16.9577357446        9.1325158952
  H        -1.4715698562       17.6324070369        7.4494232459
  O         7.7143227461       12.6192795888       15.9523713418
  C         6.5752799259       13.3230897343       16.1541207410
  O         5.9696685969       13.0007764412       17.3289285874
  C         6.7248227958       11.9283374145       17.9888770344
  C         8.0110327893       11.8223825574       17.1471645245
  O         6.1380520687       14.1624480728       15.3771409141
  H         8.8750444496       12.2896292282       17.6488741646
  H         6.9173368887       12.2453362274       19.0302868736
  H         6.0992839484       11.0162558182       17.9504237296
  H         8.2560933698       10.7996942436       16.8160880088
  O         4.2576298933        9.4066885110        4.9475713502
  C         5.2806408454       10.0533424915        5.5844681467
  O         6.4023690887       10.1152035022        4.8116643808
  C         6.0809304047        9.6078267998        3.4693521299
  C         4.7541380309        8.8584723835        3.6843599597
  O         5.1898660378       10.5182052065        6.7074759869
  H         4.0011830176        9.0638531564        2.9035970447
  H         5.9721212386       10.4860775572        2.8051494699
  H         6.9060300881        8.9523891430        3.1391524048
  H         4.9037890031        7.7682093488        3.8138365507
  O         2.3792226022       17.3280144266       17.7391555665
  C         3.0977701376       17.0817950850       18.8668784013
  O         4.2602827225       16.4351368111       18.6041251930
  C         4.4437403499       16.3138753067       17.1551211868
  C         3.2164029776       17.0492169422       16.5669715497
  O         2.7251662749       17.3746365838       19.9939357187
  H         3.4606101608       18.0256236076       16.1074749016
  H         5.3958276274       16.8178622349       16.9036344174
  H         4.4721002313       15.2384990533       16.9071332917
  H         2.6168217769       16.4231430482       15.8816402505
  O         1.8814010459        2.4291734783        4.6291368707
  C         2.2651812046        1.9684587597        5.8583819157
  O         1.6981585993        0.7561119334        6.1406208665
  C         0.9880870474        0.2752834290        4.9470712844
  C         0.8219018726        1.5537110762        4.1083466083
  O         3.0219152927        2.5585967858        6.6098663624
  H         1.0161463907        1.3857478474        3.0342053344
  H         1.6290269947       -0.4767814309        4.4466397231
  H         0.0275349167       -0.1684065353        5.2655211604
  H        -0.1519264765        2.0531248410        4.2852848645
  O         6.6114110145        7.8423296248        8.2737411657
  C         7.1153810128        9.0553568371        8.6502110468
  O         8.1004548340        9.4763447088        7.8148840063
  C         8.4209362851        8.4107707385        6.8642760582
  C         7.2404013164        7.4325130203        7.0150958716
  O         6.7207641147        9.6748702176        9.6258968677
  H         6.4904227112        7.5219655869        6.2073975542
  H         8.4901410695        8.8491126030        5.8537368931
  H         9.3873134607        7.9652413120        7.1713133574
  H         7.5580481302        6.3783766013        7.1007395729
  O        10.7596480886       15.4072605574       13.6515802730
  C        10.5912868378       16.7077709971       14.0341398414
  O         9.2664645447       17.0198098012       14.1833869545
  C         8.4638430744       15.8796755012       13.7451360202
  C         9.4695035246       14.7157178556       13.7393829088
  O        11.5025810104       17.4962426700       14.2117723500
  H         9.4510130599       14.1375871176       14.6833212827
  H         7.6390644289       15.7249196325       14.4638228969
  H         8.0672701500       16.1084863595       12.7323981292
  H         9.3620730361       14.0580708020       12.8594762231
  O        16.0759206771        2.2876794001        6.4589268350
  C        14.7600248874        2.2378467930        6.8436986069
  O        14.4678939750        3.2244762325        7.7413557113
  C        15.7222343148        3.8613412846        8.1676817629
  C        16.7034848117        3.4747734841        7.0467012104
  O        13.9692353510        1.4061636351        6.4463478728
  H        16.7772878830        4.2455604061        6.2537717921
  H        15.5476108575        4.9471104846        8.2552656910
  H        16.0003128617        3.4503974798        9.1586298528
  H        17.7050712279        3.1975539141        7.4168849076
  O        11.0506712193        4.8882469791        7.0338237960
  C        10.4409216671        4.2537673830        8.0665952085
  O        11.0378935644        4.5187757905        9.2660906202
  C        12.1425876736        5.4653876834        9.0660722657
  C        12.2117062537        5.6380897713        7.5294691253
  O         9.4576704163        3.5343004819        7.9389061468
  H        12.1167718527        6.6879138280        7.1979510243
  H        11.8978154654        6.4056788945        9.5922000736
  H        13.0542457731        5.0172775735        9.5016207201
  H        13.1139324771        5.1800027625        7.0849904363
  O        -1.1307092914        7.7103739310       13.4979269630
  C        -0.7889592836        9.0157150421       13.7481733667
  O        -0.7513759523        9.7478204245       12.5940335776
  C        -0.9236358504        8.8514265026       11.4607137342
  C        -1.5391845368        7.5904929039       12.0944828643
  O        -0.5566985704        9.4601207653       14.8548370510
  H        -2.6467785565        7.5649804084       12.0556521488
  H        -1.5851370451        9.3497602882       10.7271393932
  H         0.0743947539        8.6613461563       11.0121221352
  H        -1.1292779226        6.6501265753       11.6859393658
  O        11.6818457470        9.6901162495       14.1849956139
  C        10.4542109619       10.1225914636       14.6102248362
  O         9.9201460047       11.0478581037       13.7655754466
  C        10.9073118228       11.3946336534       12.7378826930
  C        11.9786762215       10.2911973597       12.8762714247
  O         9.9167086913        9.7482376006       15.6395142257
  H        11.8717223761        9.5020152057       12.1077980987
  H        10.3874679917       11.3959606527       11.7637260837
  H        11.2982983327       12.4074476045       12.9635560477
  H        13.0119316304       10.6896527605       12.9035190357
  O         9.1491225844        7.1791414813        9.8763337506
  C         9.5950947195        8.0611293320       10.8240232460
  O         9.5296058465        7.5223393634       12.0731434210
  C         9.1972022398        6.0963753712       11.9447225516
  C         8.5148865843        6.0495274432       10.5740459350
  O         9.9919713848        9.1886718667       10.5888562227
  H         8.7220013046        5.1250025103       10.0087238577
  H        10.1487699264        5.5275074074       11.9691887386
  H         8.5559591634        5.8038624309       12.7947677891
  H         7.4239550253        6.2425086186       10.6239593589
  O         2.2634645407        6.4341840480        6.0411729820
  C         1.5917666469        7.6084207550        6.0089682415
  O         1.1376121423        7.9064709245        4.7510612549
  C         1.4516086085        6.7954914434        3.8518228687
  C         2.4035799993        5.9058603900        4.6860509868
  O         1.4037572605        8.3168071786        6.9859054172
  H         2.1166856188        4.8392928556        4.7004856562
  H         0.5022279071        6.2896129099        3.5919538795
  H         1.9080113212        7.2070469349        2.9336329110
  H         3.4703410204        5.9869894608        4.3981533627
  O         6.7902095436       17.2509894379        6.2390864174
  C         7.4370599401       17.5796623455        5.0865612365
  O         6.5695133906       17.7983003088        4.0600505425
  C         5.2008939539       17.8313751010        4.5762457013
  C         5.3444316835       17.2701324196        6.0095385179
  O         8.6511037330       17.6706057354        4.9764664488
  H         4.8899409980       17.9323238272        6.7706469257
  H         4.8742551030       18.8913510972        4.5712124160
  H         4.5612216299       17.2208168488        3.9127571425
  H         4.9783061809       16.2307419622        6.1002726001
  O         0.9501712896       12.6556138644       15.7690600188
  C         1.4564469934       13.7806782223       16.3383319208
  O         0.7441816137       14.8926627721       15.9954176210
  C        -0.2538082518       14.5099723689       14.9727434408
  C        -0.3441217429       12.9851344078       15.1487301309
  O         2.4313929176       13.8041458888       17.0823083307
  H        -1.1463874570       12.6744927634       15.8483097721
  H        -1.1960068400       15.0470084023       15.1820161955
  H         0.1499538845       14.8223572004       13.9904461240
  H        -0.4406913075       12.4141420103       14.2111599878
  O        11.7029490718       15.7743913220        4.5665406153
  C        11.3150392721       16.1367709047        3.3180158828
  O        11.5081422184       17.4609751254        3.0805170749
  C        11.8729024425       18.1067860162        4.3537584869
  C        12.3757448527       16.9244407788        5.1958282260
  O        10.8599439052       15.3556418898        2.4891130232
  H        13.4707341535       16.7765136323        5.1091908016
  H        12.6454453789       18.8656874569        4.1482565088
  H        10.9525914492       18.5667231650        4.7609655758
  H        12.0866809567       16.9596667356        6.2596007922
  O         5.6652522980       11.2201768246       13.9427979606
  C         6.0062827619       10.1422523649       14.6992858064
  O         6.8794131019        9.3203684065       14.0627571858
  C         7.0384491419        9.7807534893       12.6800430612
  C         6.4672294386       11.2087060661       12.7129613225
  O         5.5790210157        9.9436434524       15.8275934594
  H         7.2523598483       11.9818828186       12.8114276474
  H         8.1108749900        9.7502209695       12.4241885711
  H         6.4631297083        9.1019174162       12.0220126755
  H         5.8096515162       11.4328536009       11.8535867040
  O         8.5779674730        4.9146018780        5.1853602220
  C         8.1772349283        5.6025832994        4.0832274090
  O         8.1195514794        4.8058583652        2.9757215865
  C         8.3844311958        3.4168771470        3.3763236947
  C         8.9939211137        3.5668475068        4.7839681906
  O         7.9198901698        6.7966598535        4.0788850484
  H         8.5965603538        2.8534647456        5.5263764472
  H         7.4167218263        2.8771162645        3.3886578295
  H         9.0791655357        2.9689977059        2.6422162974
  H        10.1014318946        3.5472641055        4.7870379521
  O         5.0240835490        2.9627848196       13.0032227863
  C         5.8594274014        3.6125676643       12.1406305310
  O         7.0400223453        2.9616548930       11.9812015191
  C         7.0822290699        1.7889739917       12.8589465469
  C         5.6518658486        1.7167682472       13.4519198912
  O         5.5715094746        4.6674498045       11.5889544898
  H         5.0561728257        0.8801980078       13.0363650260
  H         7.3245793979        0.9139525490       12.2288293928
  H         7.8662421746        1.9641155397       13.6196333319
  H         5.6353324119        1.7097134043       14.5595762493
  O        16.3260827637        2.4543898161       14.9449669659
  C        15.9852904864        3.1977343215       16.0258729500
  O        16.5088280340        2.6945077605       17.1814926485
  C        17.1875858482        1.4229265731       16.8891356553
  C        17.2894700445        1.4166177626       15.3498532799
  O        15.2949376717        4.2084108808       15.9699432498
  H        18.2882409050        1.7274558025       14.9899059086
  H        18.1757364557        1.4301975235       17.3844193912
  H        16.5612742538        0.6062877291       17.2985492769
  H        16.9612666018        0.4647447980       14.8987498617
  O         3.8526319216       16.0095960378       12.2551316970
  C         2.5927836234       15.6488730000       12.6265711272
  O         2.5551467113       14.3869663844       13.1418803821
  C         3.8817082081       13.7662195743       13.0298155032
  C         4.7915727314       14.9281017086       12.5711794281
  O         1.6155486149       16.3741186819       12.5166031858
  H         5.4564954964       15.2784033664       13.3815129912
  H         4.1661752621       13.3626686249       14.0176497412
  H         3.8129510420       12.9498710756       12.2863559507
  H         5.3703265959       14.6967306153       11.6585980856
  O        11.8944450015        7.2020786690        4.5879446840
  C        12.7672258616        8.2390995265        4.6898468230
  O        13.0984467591        8.7468645004        3.4676576185
  C        12.4247153224        7.9798806410        2.4200497576
  C        11.4551899047        7.0617452775        3.1993616557
  O        13.2045973976        8.6659952584        5.7490246146
  H        10.4015690712        7.3995929911        3.1426239553
  H        11.9193827827        8.6888276953        1.7413509071
  H        13.2036149908        7.4279342003        1.8657005366
  H        11.5430137767        5.9930479808        2.9226388234
  O         3.6782085726       14.6552722687        3.5728424171
  C         4.8793331439       14.0525875414        3.7592328651
  O         4.9992649355       12.9162421368        3.0104355026
  C         3.8541967617       12.8152402139        2.0946529433
  C         2.8790049923       13.8879260142        2.6178194327
  O         5.7408153334       14.4726600140        4.5160345903
  H         2.5464335889       14.5697352962        1.8157259531
  H         4.2049499924       13.0277898283        1.0695655571
  H         3.4484540136       11.7917317621        2.1728846239
  H         2.0213321684       13.4553185939        3.1651594979
  O         0.8598063819       12.1915439160        7.1848519463
  C         0.7099901186       13.2356554764        6.3271088147
  O         1.7745449443       13.3573477966        5.4855012502
  C         2.7875864399       12.3589457795        5.8356931887
  C         2.0325675048       11.3991002825        6.7685328284
  O        -0.2554713836       13.9901673576        6.3118172867
  H         1.6610354568       10.4954792919        6.2537194497
  H         3.1129102114       11.8624472476        4.9042151295
  H         3.6324886659       12.8841960396        6.3230030382
  H         2.6077206881       11.1218639589        7.6681052627
  O         6.1279532024        3.4614069925       18.2364789795
  C         5.7666771003        2.1680974249       18.0171357179
  O         4.7180211787        1.7931308800       18.7986504652
  C         4.1565797862        2.9732344147       19.4590719222
  C         5.2222335578        4.0653009336       19.2179320702
  O         6.3246541914        1.4117700257       17.2345816504
  H         4.8043007131        4.9931071577       18.7836317799
  H         3.1879557512        3.2074367247       18.9804272557
  H         4.0100847202        2.7419786874       20.5305950890
  H         5.8093800844        4.3102640138       20.1183858035
  O        12.6402658184       12.0740118966        0.9857268237
  C        13.9084528816       12.4238948862        0.6400256863
  O        14.0528478663       12.5761073138       -0.6997262747
  C        12.8194331138       12.1865660509       -1.3730738160
  C        11.8054409616       12.0194420049       -0.2154632155
  O        14.8034303534       12.6193521762        1.4521713159
  H        11.0795903264       12.8559242210       -0.1603636299
  H        12.5453231561       12.9983198885       -2.0742272824
  H        13.0162474129       11.2428094094       -1.9163701214
  H        11.2839563556       11.0450682583       -0.2358217527
  O         7.7470963467        6.4718485963       -1.9277814158
  C         8.7316879196        5.5421943397       -1.8304874045
  O         9.4345752054        5.6631604344       -0.6674941177
  C         9.0342013178        6.9093223570        0.0053256172
  C         7.7291312162        7.3048482665       -0.7181807843
  O         8.9584044956        4.6978642514       -2.6857573870
  H         6.8124362670        7.0591155433       -0.1492330574
  H         8.8889782253        6.6910954182        1.0784856060
  H         9.8459905132        7.6484527559       -0.1441335569
  H         7.7012088002        8.3590486345       -1.0448178807
  O        -0.6323545120       10.5984721509        3.8730285150
  C         0.4114490508       10.3776737976        3.0277729712
  O         0.0904648019        9.4944100608        2.0451944879
  C        -1.2622678021        8.9740567034        2.2727785288
  C        -1.8200046964        9.8909734633        3.3812597998
  O         1.4980377216       10.9270061041        3.1307478700
  H        -2.5283840598       10.6480999915        2.9904370013
  H        -1.8306596159        9.0537096530        1.3277410436
  H        -1.1719976220        7.9187563081        2.5874211648
  H        -2.2672770319        9.3300644879        4.2210984755
  O        10.4858433464       -0.5579843676       10.5503773652
  C        11.6458615599       -0.1186666051        9.9803732998
  O        11.4882250936        0.1696278038        8.6611330931
  C        10.0593956813        0.0521661735        8.3277181996
  C         9.5315593140       -0.8360431009        9.4617036474
  O        12.7017252349       -0.0030874646       10.5863994680
  H         8.5165930504       -0.5724108062        9.8084672002
  H         9.6347979415        1.0774751673        8.3252177793
  H         9.9620446811       -0.4101814212        7.3282674554
  H         9.6041774467       -1.9146442222        9.2149930724
  O        14.6100390339       14.5626967079        6.7690406840
  C        15.0417097474       13.6814301190        7.7092242040
  O        14.9103887890       12.3904006315        7.2900406107
  C        14.5842201552       12.3961169403        5.8683463079
  C        14.0155867231       13.8128536753        5.6638897111
  O        15.4661397509       14.0056089580        8.8078779756
  H        14.3347040449       14.2907906530        4.7206402337
  H        15.5249115042       12.2256032977        5.3051407262
  H        13.8655729241       11.5751702444        5.6809320405
  H        12.9127847431       13.8756571325        5.7635753093
  O         9.5286088958       11.4752954400        2.2188017990
  C         9.6105590852       10.1827868345        2.6468697958
  O        10.3879013401       10.0761391906        3.7652440826
  C        11.0837842035       11.3592272858        3.9523358903
  C        10.1570957673       12.3386603555        3.2282259651
  O         9.0638671647        9.2404613824        2.0998569536
  H         9.3546145202       12.7319104663        3.8852491144
  H        11.1671527021       11.5563302719        5.0352140395
  H        12.0768340206       11.2696327170        3.4659575286
  H        10.6700447171       13.1703206013        2.7159939158
  O        13.4957691641       17.7029129048       16.7088657616
  C        14.3222409917       16.7726981998       16.1558657536
  O        14.3242041893       15.6084649788       16.8674586657
  C        13.2925476008       15.6885488696       17.9034583966
  C        12.9866029457       17.1962569195       17.9880646384
  O        14.9917532564       16.9565936895       15.1533043788
  H        11.9062387389       17.4156811696       18.0585836722
  H        12.4124516684       15.1067407411       17.5672456776
  H        13.7079999365       15.2635128870       18.8355137794
  H        13.5380904307       17.7113602546       18.8003205627
  O        12.6441585274        7.5973845577       17.0215750551
  C        13.6620131628        8.4924869063       16.8437681029
  O        14.4273336109        8.1792690956       15.7696572901
  C        13.7963814213        7.0778763369       15.0349874610
  C        12.8003321490        6.5013815557       16.0557258041
  O        13.8647345792        9.4463411964       17.5826322313
  H        11.8070087377        6.2737639917       15.6294954042
  H        13.3017051355        7.5009369644       14.1423121373
  H        14.5829594299        6.3625551966       14.7409923966
  H        13.1981126374        5.6197153088       16.5965242578
  O        15.5650448566        4.3784213140        3.9168690449
  C        15.3924232073        5.7073728003        3.6796895708
  O        15.0025771259        5.9530883616        2.3991392116
  C        14.8222693724        4.6859342492        1.6850125028
  C        15.3417470013        3.6227859639        2.6764861826
  O        15.5709753379        6.5860218082        4.5079522569
  H        14.6104378227        2.8230612565        2.8878708591
  H        13.7468942233        4.5742771671        1.4662738395
  H        15.4005615155        4.7232176240        0.7447532559
  H        16.3068250757        3.1796792922        2.3662035872
  O        12.2524874765        3.4756579479       17.7185946401
  C        11.6144781304        2.9279865428       18.7947651394
  O        10.6569164279        2.0425344093       18.4194251602
  C        10.4466085491        2.1583337052       16.9674160467
  C        11.7392409026        2.8407948843       16.4914201129
  O        11.8834977469        3.2052124660       19.9578945679
  H        12.5011439867        2.1167935045       16.1468890019
  H        10.3020241753        1.1426190365       16.5576022134
  H         9.5455883000        2.7805660914       16.8021425810
  H        11.5635063959        3.6264887775       15.7357017862
  O        15.0803020358       14.6681762189       12.8712211307
  C        14.6546066062       13.4179975592       12.5257613304
  O        13.5628939224       13.4583056806       11.7159967428
  C        13.2693863210       14.8556562019       11.3702995121
  C        14.0734031762       15.6457041037       12.4183988520
  O        15.1854118347       12.3830083031       12.8994754735
  H        14.5982302843       16.5269927573       12.0142011102
  H        13.6096922677       15.0101681185       10.3286089838
  H        12.1802012348       15.0133937773       11.4544094325
  H        13.4661013867       15.9509185025       13.2920086407
  O         3.0244084515        8.1323706172       16.8541430772
  C         3.9062523684        8.4553376374       17.8377411434
  O         3.7716125933        9.7500946612       18.2308492219
  C         2.8767081129       10.4434096891       17.2927013397
  C         2.1314078475        9.2812612740       16.6212409970
  O         4.7028444476        7.6726951333       18.3381750328
  H         1.1703714172        9.0591500200       17.1225213329
  H         2.2164895784       11.1097707500       17.8741507251
  H         3.5120284068       11.0238025641       16.5985689754
  H         1.9899979041        9.3925554737       15.5330368980
  O         4.3277171698        3.7100077209       16.0720309065
  C         3.2177493255        3.4257388426       15.3397781529
  O         2.8375402841        4.4748263763       14.5629746699
  C         3.8512461774        5.5308906048       14.6571604095
  C         4.6634106461        5.1253836189       15.8975392582
  O         2.6448312357        2.3481223112       15.3745260632
  H         5.7548735885        5.2090807478       15.7601288093
  H         4.4412723686        5.5098855785       13.7189916648
  H         3.3385857623        6.5026472615       14.7659386368
  H         4.3474148526        5.6756917294       16.8054874742
  O        14.8241812251        9.6367875896        8.2884133524
  C        14.1238466823        8.5400145273        8.6802316697
  O        14.8143243367        7.3861297747        8.4429602957
  C        16.0068949702        7.6905065954        7.6379363714
  C        16.0923365369        9.2348312784        7.6825710438
  O        13.0269809411        8.5909961521        9.2092963924
  H        16.9201032548        9.6162777062        8.3110269718
  H        16.8765932136        7.1858876417        8.1007977445
  H        15.8283144353        7.3049615248        6.6166436582
  H        16.1556798739        9.6944980195        6.6793358825