      40
 i =      117, E =      -270.0157478993
  O         0.1940071284       -0.0207095709       -0.1150679726
  C         1.0490709737        1.0424873049       -0.1341613037
  O         1.9582088492        0.9217587725       -1.1504972009
  C         1.8891448043       -0.4698025576       -1.6180340141
  C         1.0461799858       -1.1027304311       -0.5664278602
  O         1.0242174471        1.9516596552        0.6778217021
  H         0.4325681098       -1.9642409357       -0.8677763847
  H         1.4194419344       -0.5654310012       -2.6454407802
  H         2.9201704388       -0.8594600915       -1.6725532500
  H         1.6861262525       -1.3523472093        0.3252320746
  O         6.9654945718        0.1899757758        0.6723758752
  C         6.2285695287        0.8066533465       -0.2836804870
  O         5.1012412784        0.0867300726       -0.5781137827
  C         5.4964595629       -1.2835239815       -0.3166763045
  C         6.4282615005       -1.1683698034        0.8272879731
  O         6.5205407036        1.8446472455       -0.8523668049
  H         5.8858840824       -1.2446499531        1.8289458728
  H         4.6185616714       -1.9450564089       -0.2084574209
  H         6.0846887625       -1.5984796790       -1.2300867622
  H         7.2603593135       -1.8939026881        0.8278774809
  O         0.1940491810        5.5292516835       -0.1151447983
  C         1.0490955942        6.5924272152       -0.1341889309
  O         1.9582395419        6.4717670110       -1.1504772838
  C         1.8891931892        5.0802088064       -1.6180631896
  C         1.0462523121        4.4472377051       -0.5664714052
  O         1.0241562110        7.5017144413        0.6778407502
  H         0.4326548684        3.5857064124       -0.8678393716
  H         1.4194891860        4.9845761618       -2.6454872579
  H         2.9202282711        4.6905845301       -1.6725885401
  H         1.6862072706        4.1976410796        0.3252022667
  O         6.9654925942        5.7399924555        0.6723777590
  C         6.2285213903        6.3564848322       -0.2835966509
  O         5.1012478033        5.6367384009       -0.5781159466
  C         5.4964660492        4.2664821269       -0.3166724593
  C         6.4282627090        4.3816403624        0.8272877604
  O         6.5205914841        7.3947982813       -0.8524479003
  H         5.8858852576        4.3053584278        1.8289469169
  H         4.6185572543        3.6049408602       -0.2084534276
  H         6.0846898122        3.9515193855       -1.2300831129
  H         7.2603592327        3.6560922542        0.8278833652
