     160
 i =      379, E =     -1079.9254120216
  O         0.4693400545       -0.3716335618        0.0759268483
  C         0.8133707139        0.9416973958       -0.0786901609
  O         1.7682464373        1.1027923247       -1.0507616640
  C         2.1388179425       -0.2207618189       -1.5389416022
  C         0.9854833321       -1.1080225870       -1.0795446706
  O         0.3693177496        1.8607492102        0.5863241693
  H         0.1804382945       -1.1881528162       -1.8368603492
  H         2.2452836466       -0.1737339750       -2.6349994958
  H         3.1068949674       -0.4841769176       -1.0803118169
  H         1.2856027168       -2.1099864896       -0.7364088003
  O         7.1512197887        0.2066807059        0.3835996741
  C         6.2537168403        0.7748512712       -0.4522715624
  O         5.1211323829       -0.0032402182       -0.5697920771
  C         5.2195845639       -1.1172069529        0.3787127941
  C         6.7064279856       -1.1280345748        0.7595674525
  O         6.4107428276        1.8365248361       -1.0454203805
  H         6.8774294494       -1.2642084066        1.8424747529
  H         4.5611850044       -0.8890774032        1.2413799658
  H         4.9045042143       -2.0446278064       -0.1356620951
  H         7.2995221628       -1.8755446166        0.1966029502
  O         0.4688422795        5.1786904915        0.0750397963
  C         0.8129880267        6.4918867320       -0.0791257429
  O         1.7681588369        6.6530550953       -1.0508002366
  C         2.1388472561        5.3293692011       -1.5389265871
  C         0.9856496702        4.4416818528       -1.0798663548
  O         0.3696443516        7.4109816125        0.5874107107
  H         0.1800878518        4.3622660818       -1.8368067263
  H         2.2452637422        5.3762406003       -2.6349072608
  H         3.1069741099        5.0656011395       -1.0802764390
  H         1.2856275614        3.4394787093       -0.7364454271
  O         7.1514267391        5.7563097170        0.3829933142
  C         6.2535543576        6.3247053106       -0.4522885044
  O         5.1210155417        5.5467964539       -0.5698250051
  C         5.2196218026        4.4328289809        0.3786230378
  C         6.7063708015        4.4219774908        0.7597081216
  O         6.4105089037        7.3868438931       -1.0452309438
  H         6.8773656629        4.2856367633        1.8426835131
  H         4.5612542955        4.6608565294        1.2412488251
  H         4.9043979310        3.5054411031       -0.1356074869
  H         7.2993531776        3.6745607778        0.1967136960
  O         0.4692845174       -0.3716038941        4.3668429932
  C         0.8133212094        0.9417334407        4.2122754187
  O         1.7682332665        1.1028044051        3.2402209449
  C         2.1387809268       -0.2207806898        2.7520728219
  C         0.9853576896       -1.1079856603        3.2113364687
  O         0.3693798209        1.8607525769        4.8774191537
  H         0.1802480829       -1.1878194444        2.4540603234
  H         2.2453581197       -0.1737481162        1.6560406915
  H         3.1067902889       -0.4843091176        3.2108007886
  H         1.2853170550       -2.1100563937        3.5543578042
  O         7.1512339696        0.2066489939        4.6745706020
  C         6.2537123764        0.7748434457        3.8387221276
  O         5.1211251059       -0.0032427209        3.7212029437
  C         5.2195919561       -1.1172341992        4.6696793467
  C         6.7064292554       -1.1280506283        5.0505658587
  O         6.4107286611        1.8365299488        3.2455947773
  H         6.8774024430       -1.2642322545        6.1334804077
  H         4.5611711145       -0.8891458585        5.5323346544
  H         4.9045260624       -2.0446400973        4.1552742311
  H         7.2995259283       -1.8755587745        4.4876117089
  O         0.4688144710        5.1787078174        4.3659952570
  C         0.8129639105        6.4919072143        4.2118575889
  O         1.7681529965        6.6530678423        3.2401932654
  C         2.1388427026        5.3293700343        2.7520749578
  C         0.9856281328        4.4416842099        3.2110954281
  O         0.3696728113        7.4109870935        4.8784606304
  H         0.1800425544        4.3623482028        2.4541777154
  H         2.2452787020        5.3762414295        1.6560984074
  H         3.1069533852        5.0655689447        3.2107466806
  H         1.2855674970        3.4394499437        3.5545000763
  O         7.1514243099        5.7563154157        4.6739959705
  C         6.2535540192        6.3247080975        3.8387107758
  O         5.1210155970        5.5467969359        3.7211751417
  C         5.2196231863        4.4328275463        4.6696211746
  C         6.7063723107        4.4219805589        5.0507094246
  O         6.4105103316        7.3868428074        3.2457662199
  H         6.8773657489        4.2856444656        6.1336860640
  H         4.5612525795        4.6608507882        5.5322455343
  H         4.9044072803        3.5054373940        4.1553868816
  H         7.2993602037        3.6745656421        4.4877177687
  O         9.6728470598       -0.3785394278       -0.0042331868
  C        10.0889956322        0.9148454822       -0.1068613937
  O        11.0746211964        1.0339722545       -1.0517571541
  C        11.3971567476       -0.2885802897       -1.5642510013
  C        10.1983470356       -1.1325617615       -1.1424255636
  O         9.6766977678        1.8440847576        0.5719701635
  H         9.4153407619       -1.1833396778       -1.9244331875
  H        11.5233769118       -0.2184072951       -2.6578653075
  H        12.3480554200       -0.6058613248       -1.0996762930
  H        10.4521357963       -2.1433544527       -0.7868824324
  O        16.4560054468        0.2000096792        0.3783845047
  C        15.5546040293        0.7715018495       -0.4538500454
  O        14.4198830356       -0.0038815805       -0.5694310875
  C        14.5208885967       -1.1191204423        0.3772598190
  C        16.0086066701       -1.1327998248        0.7572611569
  O        15.7102076457        1.8353784494       -1.0441926440
  H        16.1809844143       -1.2687949428        1.8402218681
  H        13.8646663360       -0.8919651260        1.2417819320
  H        14.2048739553       -2.0462039380       -0.1370684368
  H        16.6000015555       -1.8814074963        0.1944006820
  O         9.6728118726        5.1714949922       -0.0041203455
  C        10.0891409621        6.4645336348       -0.1069855877
  O        11.0747065620        6.5837969766       -1.0516373614
  C        11.3971764958        5.2611504520       -1.5639914049
  C        10.1981711878        4.4174701431       -1.1423206243
  O         9.6765390583        7.3943781767        0.5720621041
  H         9.4153437747        4.3667597013       -1.9244018252
  H        11.5237481016        5.3312180385       -2.6576605451
  H        12.3478868573        4.9439503600       -1.0991043675
  H        10.4518321770        3.4065768606       -0.7868441014
  O        16.4559496976        5.7500965039        0.3784958447
  C        15.5545983042        6.3214116939       -0.4537600384
  O        14.4198976117        5.5461309089       -0.5694317962
  C        14.5208644032        4.4309396611        0.3773565916
  C        16.0086023702        4.4172027812        0.7572682618
  O        15.7102950349        7.3854143479       -1.0443123020
  H        16.1810165941        4.2812458750        1.8402143047
  H        13.8647029597        4.6582364255        1.2419037439
  H        14.2047640064        3.5038369459       -0.1368811005
  H        16.5999508186        3.6685278009        0.1943869546
  O         9.6728835254       -0.3785379243        4.2867287411
  C        10.0890015605        0.9148651486        4.1841386586
  O        11.0746313790        1.0340752448        3.2392599492
  C        11.3972358057       -0.2884038144        2.7266611207
  C        10.1985684227       -1.1325697680        3.1485990470
  O         9.6766812450        1.8440826752        4.8629776311
  H         9.4155651585       -1.1835980500        2.3666119911
  H        11.5232512372       -0.2181694052        1.6330198780
  H        12.3482565579       -0.6055834719        3.1910401782
  H        10.4525682025       -2.1432815650        3.5042725922
  O        16.4559967927        0.2000297202        4.6694137396
  C        15.5546069507        0.7715078769        3.8371638128
  O        14.4198887254       -0.0038825101        3.7215747069
  C        14.5208791031       -1.1190966910        4.6683029972
  C        16.0086079924       -1.1327979092        5.0482565268
  O        15.7102238517        1.8353649129        3.2467878911
  H        16.1810127926       -1.2687976385        6.1312076949
  H        13.8646880181       -0.8918795055        5.5328340149
  H        14.2048189971       -2.0461871326        4.1540098915
  H        16.5999757106       -1.8814192427        4.4853769290
  O         9.6728068966        5.1714955373        4.2868857993
  C        10.0891378177        6.4645328355        4.1840158039
  O        11.0747098196        6.5837847580        3.2393685553
  C        11.3971676404        5.2611338381        2.7270180252
  C        10.1981306402        4.4174922130        3.1486601554
  O         9.6765346685        7.3943837683        4.8630574092
  H         9.4153081150        4.3668377523        2.3665763614
  H        11.5237789214        5.3312020868        1.6333502605
  H        12.3478527877        4.9439169343        3.1919401230
  H        10.4517526078        3.4065761643        3.5040950787
  O        16.4559480497        5.7500968027        4.6694955921
  C        15.5545972924        6.3214121049        3.8372391792
  O        14.4198968336        5.5461317143        3.7215669876
  C        14.5208644516        4.4309414767        4.6683555743
  C        16.0086018129        4.4172031901        5.0482679546
  O        15.7102960002        7.3854154394        3.2466892851
  H        16.1810168102        4.2812463453        6.1312137513
  H        13.8647026344        4.6582361116        5.5329025027
  H        14.2047642807        3.5038386350        4.1541192957
  H        16.5999510653        3.6685285310        4.4853862349
