     320
 i =      319, E =     -2159.8401258607
  O         0.3851198035       -0.3645733150       -0.0199065045
  C         0.7867867378        0.9392803707       -0.1091874476
  O         1.7701938030        1.1007870575       -1.0528567831
  C         2.1006811066       -0.2121011924       -1.5935401978
  C         0.9136782041       -1.0825925745       -1.1808429713
  O         0.3699129156        1.8537624409        0.5813271879
  H         0.1256862395       -1.1244149938       -1.9579267188
  H         2.2207432437       -0.1213181531       -2.6860466651
  H         3.0568463664       -0.5291592517       -1.1401560967
  H         1.1839691737       -2.0994422959       -0.8556491834
  O         7.1582297971        0.1950897610        0.3849393682
  C         6.2902473426        0.7999195519       -0.4527455682
  O         5.1196881887        0.0813094696       -0.5687889157
  C         5.1872082198       -1.0688171352        0.3394280145
  C         6.6663133399       -1.1214566826        0.7551629436
  O         6.5029657382        1.8482235813       -1.0489357776
  H         6.8094315989       -1.2607488932        1.8418813337
  H         4.5116452366       -0.8649969295        1.1945325628
  H         4.8706069169       -1.9742564525       -0.2134907339
  H         7.2509379674       -1.8864285733        0.2078349714
  O         0.3851277372        5.1856360391       -0.0200614223
  C         0.7869593171        6.4893255037       -0.1095401130
  O         1.7701813016        6.6508409496       -1.0529933993
  C         2.1004543305        5.3377171145       -1.5934491602
  C         0.9134167452        4.4672817315       -1.1807831262
  O         0.3700827797        7.4040351281        0.5814574907
  H         0.1255772836        4.4259181348       -1.9580540953
  H         2.2208738219        5.4287428007       -2.6858258334
  H         3.0566809634        5.0208414325       -1.1401181501
  H         1.1839549203        3.4502985299       -0.8558197922
  O         7.1582266775        5.7451495974        0.3849188924
  C         6.2902146464        6.3498427983       -0.4527441992
  O         5.1197074383        5.6312679935       -0.5687965570
  C         5.1872436521        4.4811989220        0.3394859852
  C         6.6663427514        4.4285530799        0.7551740853
  O         6.5029318395        7.3983102260       -1.0489649352
  H         6.8094186232        4.2892384058        1.8419125155
  H         4.5116147898        4.6850359566        1.1945552223
  H         4.8705563525        3.5757872372       -0.2134392101
  H         7.2508982753        3.6635405702        0.2077964835
  O         0.3851195913       -0.3645737117        4.2710940068
  C         0.7867869945        0.9392803636        4.1818128452
  O         1.7701938841        1.1007872343        3.2381433660
  C         2.1006814394       -0.2121012017        2.6974597527
  C         0.9136779161       -1.0825921572        3.1101562315
  O         0.3699128741        1.8537621780        4.8723274269
  H         0.1256859600       -1.1244140530        2.3330727345
  H         2.2207441411       -0.1213183379        1.6049535952
  H         3.0568460611       -0.5291594459        3.1508449455
  H         1.1839680076       -2.0994418481        3.4353497997
  O         7.1582300041        0.1950896989        4.6759397477
  C         6.2902476308        0.7999193874        3.8382543674
  O         5.1196883330        0.0813093943        3.7222110652
  C         5.1872079187       -1.0688171892        4.6304280149
  C         6.6663128346       -1.1214563815        5.0461630821
  O         6.5029661261        1.8482235986        3.2420642564
  H         6.8094312770       -1.2607481205        6.1328816268
  H         4.5116448261       -0.8649968839        5.4855327091
  H         4.8706073351       -1.9742565005        4.0775086259
  H         7.2509380487       -1.8864284195        4.4988361702
  O         0.3851278817        5.1856348365        4.2709392743
  C         0.7869588598        6.4893250659        4.1814603946
  O         1.7701815672        6.6508415219        3.2380068160
  C         2.1004548105        5.3377173322        2.6975511039
  C         0.9134161232        4.4672831043        3.1102148967
  O         0.3700816087        7.4040348256        4.8724572697
  H         0.1255759060        4.4259208455        2.3329448811
  H         2.2208754634        5.4287423840        1.6051741298
  H         3.0566799266        5.0208399594        3.1508841581
  H         1.1839513676        3.4502992467        3.4351772427
  O         7.1582260693        5.7451496536        4.6759188483
  C         6.2902155410        6.3498427005        3.8382562048
  O         5.1197074879        5.6312684227        3.7222031646
  C         5.1872429107        4.4811989172        4.6304856274
  C         6.6663421291        4.4285530350        5.0461748081
  O         6.5029323780        7.3983100452        3.2420352378
  H         6.8094182441        4.2892392676        6.1329123686
  H         4.5116145655        4.6850356426        5.4855551044
  H         4.8705571336        3.5757867385        4.0775596701
  H         7.2508986305        3.6635408039        4.4987980079
  O         9.6850868851       -0.3642833996       -0.0201870563
  C        10.0869223020        0.9395286918       -0.1094164456
  O        11.0701974043        1.1007930830       -1.0529644434
  C        11.4003970226       -0.2122837859       -1.5934329743
  C        10.2133295788       -1.0827472957       -1.1807943452
  O         9.6701980511        1.8539155605        0.5813650885
  H         9.4255134559       -1.1238952544       -1.9580999033
  H        11.5209620138       -0.1212640191       -2.6857934643
  H        12.3566104611       -0.5291945260       -1.1400627675
  H        10.4838841784       -2.0997992481       -0.8559443668
  O        16.4582142944        0.1950329202        0.3849218859
  C        15.5903012567        0.7999558792       -0.4527201742
  O        14.4196630487        0.0813557815       -0.5687991257
  C        14.4871316546       -1.0687932098        0.3394381695
  C        15.9662383469       -1.1214766191        0.7551429188
  O        15.8030215713        1.8481749764       -1.0488442519
  H        16.1095123125       -1.2607574490        1.8417803564
  H        13.8117333577       -0.8648472567        1.1946631843
  H        14.1705949431       -1.9743051126       -0.2134591520
  H        16.5509450900       -1.8863501167        0.2078881428
  O         9.6846853843        5.1858917709       -0.0205190053
  C        10.0875463854        6.4893272113       -0.1096956406
  O        11.0706372491        6.6506088107       -1.0531016354
  C        11.4001117233        5.3376158749       -1.5932342613
  C        10.2132673704        4.4672946574       -1.1808633646
  O         9.6704491181        7.4039640154        0.5812014418
  H         9.4255364047        4.4265926660       -1.9580281964
  H        11.5210035134        5.4288342470       -2.6852622194
  H        12.3561161540        5.0210255935       -1.1400934614
  H        10.4836654937        3.4500244176       -0.8564522330
  O        16.4582369423        5.7451225723        0.3849321647
  C        15.5902379831        6.3498531773       -0.4526979675
  O        14.4196937615        5.6313468301       -0.5687921845
  C        14.4871929768        4.4812351236        0.3395128263
  C        15.9662931479        4.4285405770        0.7551571388
  O        15.8030009631        7.3982470379       -1.0489574048
  H        16.1094998291        4.2892204755        1.8418639849
  H        13.8117109970        4.6851814293        1.1946525478
  H        14.1705028091        3.5757658418       -0.2133254536
  H        16.5508960622        3.6635776537        0.2077746577
  O         9.6850874457       -0.3642830393        4.2708142691
  C        10.0869235564        0.9395294720        4.1815836001
  O        11.0701978298        1.1007929324        3.2380354782
  C        11.4003965562       -0.2122845105        2.6975675928
  C        10.2133292853       -1.0827480036        3.1102064643
  O         9.6701980525        1.8539164736        4.8723641015
  H         9.4255143795       -1.1238956168        2.3328990727
  H        11.5209627761       -0.1212641788        1.6052077191
  H        12.3566107152       -0.5291932104        3.1509364385
  H        10.4838854230       -2.0997998628        3.4350562374
  O        16.4582151006        0.1950327077        4.6759227673
  C        15.5903009775        0.7999561971        3.8382788730
  O        14.4196629254        0.0813549802        3.7222010350
  C        14.4871323482       -1.0687927121        4.6304388079
  C        15.9662381622       -1.1214761750        5.0461429791
  O        15.8030210894        1.8481741206        3.2421557317
  H        16.1095119195       -1.2607566343        6.1327819096
  H        13.8117327320       -0.8648468050        5.4856631265
  H        14.1705944960       -1.9743037466        4.0775420665
  H        16.5509444605       -1.8863501775        4.4988883653
  O         9.6846859164        5.1858899644        4.2704804363
  C        10.0875459923        6.4893247847        4.1813064046
  O        11.0706373649        6.6506094759        3.2379007445
  C        11.4001127879        5.3376171701        2.6977652389
  C        10.2132687806        4.4672955999        3.1101363726
  O         9.6704468201        7.4039631969        4.8722004205
  H         9.4255374511        4.4265904971        2.3329727453
  H        11.5210037054        5.4288335584        1.6057357751
  H        12.3561168091        5.0210250462        3.1509071094
  H        10.4836651537        3.4500263860        3.4345490839
  O        16.4582362738        5.7451222179        4.6759319488
  C        15.5902391992        6.3498536123        3.8383021825
  O        14.4196938303        5.6313472053        3.7222074775
  C        14.4871917850        4.4812350654        4.6305125428
  C        15.9662919038        4.4285406538        5.0461578727
  O        15.8030015805        7.3982458650        3.2420438292
  H        16.1094996910        4.2892216138        6.1328632881
  H        13.8117110874        4.6851817168        5.4856530387
  H        14.1705037600        3.5757651402        4.0776733209
  H        16.5508964432        3.6635783685        4.4987771598
  O         0.3850865829       10.7355726030       -0.0201130931
  C         0.7868023395       12.0394654475       -0.1093891388
  O         1.7701652577       12.2008249657       -1.0529691839
  C         2.1005024748       10.8877671177       -1.5934786636
  C         0.9134460604       10.0173267394       -1.1808641730
  O         0.3701352706       12.9537812455        0.5813680130
  H         0.1255289687        9.9759703557       -1.9580166983
  H         2.2208838103       10.9787295427       -2.6858723532
  H         3.0566516071       10.5707595551       -1.1400408714
  H         1.1838365345        9.0003500934       -0.8559026153
  O         7.1582305599       11.2950636323        0.3849175926
  C         6.2902735920       11.8998885199       -0.4527003465
  O         5.1196779609       11.1813513233       -0.5687786333
  C         5.1871638689       10.0311933745        0.3394251449
  C         6.6662693791        9.9785438365        0.7551606985
  O         6.5030172072       12.9482512833       -1.0489276691
  H         6.8094546701        9.8392561746        1.8418511381
  H         4.5116781057       10.2350630017        1.1945839589
  H         4.8705984950        9.1257036176       -0.2134806573
  H         7.2509361066        9.2136105485        0.2078784897
  O         0.3851181190       16.2855098396       -0.0200617705
  C         0.7868017798       17.5893443818       -0.1093602305
  O         1.7701674565       17.7508220975       -1.0529264695
  C         2.1005580228       16.4378193127       -1.5934917187
  C         0.9134993067       15.5673658379       -1.1808802299
  O         0.3700237739       18.5038176389        0.5813720643
  H         0.1255560658       15.5258800142       -1.9580041109
  H         2.2208617308       16.5287130448       -2.6859332422
  H         3.0567010111       16.1207535123       -1.1400362307
  H         1.1838378717       14.5504209642       -0.8558508961
  O         7.1582209282       16.8450434555        0.3849116652
  C         6.2902846438       17.4498597098       -0.4526691621
  O         5.1196799839       16.7313629657       -0.5687874947
  C         5.1871275465       15.5811886852        0.3394066148
  C         6.6662336774       15.5285314696        0.7551377825
  O         6.5030523649       18.4982830018       -1.0489010009
  H         6.8094920143       15.3892484596        1.8417918761
  H         4.5117113783       15.7850921798        1.1946324375
  H         4.8706247575       14.6756675471       -0.2135159194
  H         7.2509676336       14.7636425942        0.2079043688
  O         0.3850867353       10.7355719806        4.2708878841
  C         0.7868025681       12.0394651678        4.1816111408
  O         1.7701655342       12.2008251548        3.2380313115
  C         2.1005029922       10.8877674583        2.6975211922
  C         0.9134468303       10.0173268235        3.1101358335
  O         0.3701341653       12.9537813145        4.8723672586
  H         0.1255298635        9.9759688914        2.3329834831
  H         2.2208837945       10.9787294410        1.6051275818
  H         3.0566520533       10.5707600539        3.1509589353
  H         1.1838371262        9.0003508365        3.4350983687
  O         7.1582307259       11.2950633338        4.6759177557
  C         6.2902737168       11.8998883222        3.8382996027
  O         5.1196779617       11.1813514416        3.7222212352
  C         5.1871640067       10.0311924915        4.6304236962
  C         6.6662690706        9.9785437603        5.0461605005
  O         6.5030174889       12.9482515418        3.2420725114
  H         6.8094538970        9.8392565684        6.1328512548
  H         4.5116773911       10.2350604594        5.4855824951
  H         4.8706003523        9.1257031150        4.0775161906
  H         7.2509370721        9.2136107339        4.4988794676
  O         0.3851180121       16.2855093698        4.2709381112
  C         0.7868012861       17.5893440829        4.1816400533
  O         1.7701674078       17.7508223684        3.2380739028
  C         2.1005588590       16.4378199570        2.6975081488
  C         0.9134999948       15.5673662528        3.1101191478
  O         0.3700232249       18.5038170783        4.8723723401
  H         0.1255561785       15.5258794859        2.3329961896
  H         2.2208620305       16.5287128027        1.6050664363
  H         3.0567011497       16.1207531639        3.1509645530
  H         1.1838374508       14.5504216659        3.4351491776
  O         7.1582209265       16.8450436330        4.6759118370
  C         6.2902846907       17.4498595458        3.8383306776
  O         5.1196800400       16.7313629531        3.7222125415
  C         5.1871275443       15.5811887848        4.6304067979
  C         6.6662336142       15.5285317569        5.0461382606
  O         6.5030524508       18.4982830366        3.2420986686
  H         6.8094915917       15.3892491704        6.1327925400
  H         4.5117108915       15.7850921362        5.4856323050
  H         4.8706249093       14.6756677820        4.0774839217
  H         7.2509675389       14.7636424924        4.4989052088
  O         9.6850923728       10.7354725707       -0.0200333073
  C        10.0867835990       12.0393579704       -0.1093393778
  O        11.0701747097       12.2008180546       -1.0529169583
  C        11.4005603027       10.8877973979       -1.5935057598
  C        10.2134277900       10.0174033431       -1.1809485773
  O         9.6699924396       12.9538259150        0.5813502307
  H         9.4254819481        9.9760477129       -1.9580672616
  H        11.5209289908       10.9787126327       -2.6859628506
  H        12.3566545001       10.5706846983       -1.1399413254
  H        10.4836859844        9.0004101826       -0.8560268968
  O        16.4582408511       11.2950785854        0.3849458260
  C        15.5902818279       11.9000213544       -0.4527863955
  O        14.4196690104       11.1813323934       -0.5687773702
  C        14.4871905663       10.0311769383        0.3394376498
  C        15.9663052797        9.9785378914        0.7551639012
  O        15.8029770626       12.9481318059       -1.0488978911
  H        16.1094463878        9.8392499763        1.8418606457
  H        13.8116625354       10.2350424394        1.1945685899
  H        14.1705935947        9.1257170127       -0.2134795690
  H        16.5509287195        9.2135891237        0.2078524510
  O         9.6851309246       16.2854345194       -0.0199343619
  C        10.0867822706       17.5891982278       -0.1092460561
  O        11.0701755529       17.7508014150       -1.0528519682
  C        11.4007037401       16.4379256150       -1.5935430354
  C        10.2136877294       15.5674164509       -1.1808591313
  O         9.6698696791       18.5038298705        0.5814045274
  H         9.4256718505       15.5255853388       -1.9579197332
  H        11.5207448552       16.5286783975       -2.6860710469
  H        12.3568528455       16.1208084052       -1.1401207578
  H        10.4839536775       14.5505566255       -0.8556509907
  O        16.4582253873       16.8450807449        0.3849387089
  C        15.5902999915       17.4499920851       -0.4527524359
  O        14.4196797538       16.7313476585       -0.5687809391
  C        14.4871777379       15.5811555972        0.3394062880
  C        15.9662813487       15.5285362555        0.7551588280
  O        15.8029985157       18.4981524342       -1.0488966886
  H        16.1094422211       15.3892597014        1.8418366882
  H        13.8116568341       15.7850027722        1.1945528389
  H        14.1706386372       14.6756824468       -0.2135534807
  H        16.5509593294       14.7636011742        0.2078871552
  O         9.6850922645       10.7354727685        4.2709659129
  C        10.0867826650       12.0393579721        4.1816601884
  O        11.0701741791       12.2008182501        3.2380829445
  C        11.4005608822       10.8877979071        2.6974941479
  C        10.2134282198       10.0174036306        3.1100509651
  O         9.6699927044       12.9538252605        4.8723512396
  H         9.4254816706        9.9760474290        2.3329331270
  H        11.5209290425       10.9787126073        1.6050369681
  H        12.3566545874       10.5706841193        3.1510595813
  H        10.4836857644        9.0004105982        3.4349731721
  O        16.4582413090       11.2950786874        4.6759464455
  C        15.5902813843       11.9000221617        3.8382126049
  O        14.4196688909       11.1813320206        3.7222227989
  C        14.4871912537       10.0311762011        4.6304368794
  C        15.9663054322        9.9785380094        5.0461635878
  O        15.8029766635       12.9481311582        3.2421020348
  H        16.1094455704        9.8392502003        6.1328615040
  H        13.8116616099       10.2350404322        5.4855671197
  H        14.1705946260        9.1257172385        4.0775184046
  H        16.5509291304        9.2135887941        4.4988527498
  O         9.6851306362       16.2854349481        4.2710643855
  C        10.0867812827       17.5891985833        4.1817528602
  O        11.0701750981       17.7508018020        3.2381477272
  C        11.4007039604       16.4379257023        2.6974571277
  C        10.2136878228       15.5674163359        3.1101405121
  O         9.6698699378       18.5038294886        4.8724053066
  H         9.4256714464       15.5255858473        2.3330806383
  H        11.5207452221       16.5286784367        1.6049291600
  H        12.3568524661       16.1208077015        3.1508804474
  H        10.4839533047       14.5505563094        3.4353487731
  O        16.4582256408       16.8450803366        4.6759388868
  C        15.5903001865       17.4499927402        3.8382469007
  O        14.4196797126       16.7313476792        3.7222189840
  C        14.4871775213       15.5811551771        4.6304056131
  C        15.9662806555       15.5285365062        5.0461592334
  O        15.8029986474       18.4981519351        3.2421039840
  H        16.1094413931       15.3892609125        6.1328375119
  H        13.8116560174       15.7850017597        5.4855522701
  H        14.1706399317       14.6756821843        4.0774448331
  H        16.5509598138       14.7636013728        4.4988891115
