     640
 i =      410, E =     -4319.6652817762
  O         0.4683056960       -0.3719317954        0.0733872193
  C         0.8136653064        0.9415885169       -0.0785293399
  O         1.7686057821        1.1021993835       -1.0510778805
  C         2.1311802699       -0.2228786302       -1.5418183548
  C         0.9626600527       -1.0974788459       -1.0987829311
  O         0.3708844912        1.8607029344        0.5876360748
  H         0.1532455302       -1.1413818102       -1.8541715439
  H         2.2531989040       -0.1726307835       -2.6361000674
  H         3.0895779485       -0.5022953071       -1.0715939673
  H         1.2428712886       -2.1128301176       -0.7787480092
  O         7.1626394275        0.1944338483        0.3834925207
  C         6.2930369964        0.7991351091       -0.4531571908
  O         5.1229168458        0.0795554926       -0.5672183392
  C         5.1933825205       -1.0711608035        0.3414584628
  C         6.6731362771       -1.1225399545        0.7549782952
  O         6.5031283296        1.8477532954       -1.0489202425
  H         6.8178409533       -1.2620916566        1.8419899544
  H         4.5185684597       -0.8670798488        1.1969860208
  H         4.8767583687       -1.9771558721       -0.2104559518
  H         7.2577769190       -1.8873153403        0.2072115235
  O         0.4684649310        5.1780264618        0.0735529857
  C         0.8139448970        6.4912888987       -0.0786392456
  O         1.7686610125        6.6522043903       -1.0511016242
  C         2.1311039124        5.3271670653       -1.5417456368
  C         0.9627058971        4.4525637916       -1.0986453618
  O         0.3707739609        7.4107812261        0.5874543277
  H         0.1534015135        4.4083765994       -1.8541150904
  H         2.2531671452        5.3773465325       -2.6359354940
  H         3.0895188870        5.0478322831       -1.0717115786
  H         1.2429844855        3.4373128224       -0.7785776109
  O         7.1626536513        5.7444518610        0.3834989082
  C         6.2930329666        6.3489373637       -0.4530282992
  O         5.1229714976        5.6295242765       -0.5672641315
  C         5.1933672513        4.4788279569        0.3414333921
  C         6.6731018706        4.4274799396        0.7549642245
  O         6.5031534669        7.3979621715       -1.0489766133
  H         6.8178129627        4.2879277001        1.8419543311
  H         4.5185333329        4.6828712466        1.1969815235
  H         4.8767917556        3.5728294563       -0.2105241133
  H         7.2577804275        3.6627019911        0.2072744289
  O         0.4682840641       -0.3719442712        4.3646292562
  C         0.8136973463        0.9415833912        4.2126000775
  O         1.7686343944        1.1020708317        3.2399822137
  C         2.1311155145       -0.2231012591        2.7491022754
  C         0.9622512542       -1.0973275578        3.1921197788
  O         0.3707932577        1.8608345552        4.8784986675
  H         0.1529518917       -1.1408761326        2.4365358998
  H         2.2533280648       -0.1725821000        1.6547360268
  H         3.0894654244       -0.5024558287        3.2196297943
  H         1.2424006151       -2.1127772782        3.5117539221
  O         7.1626441541        0.1944079962        4.6744404496
  C         6.2929989780        0.7991522561        3.8378259635
  O         5.1228387522        0.0796390016        3.7238442203
  C         5.1933897367       -1.0711788997        4.6324188280
  C         6.6731509586       -1.1225583061        5.0460048449
  O         6.5031289063        1.8477442273        3.2420332035
  H         6.8178062354       -1.2620920718        6.1330652271
  H         4.5185555085       -0.8671139481        5.4879109192
  H         4.8767744759       -1.9771861559        4.0804968782
  H         7.2577952925       -1.8873252483        4.4981977118
  O         0.4684186569        5.1780376795        4.3644759037
  C         0.8138828220        6.4913186218        4.2123689491
  O         1.7686446974        6.6522202101        3.2399128631
  C         2.1310997737        5.3271665841        2.7492384536
  C         0.9626170723        4.4525936480        3.1922164998
  O         0.3707757834        7.4107864684        4.8785542538
  H         0.1532329674        4.4086540280        2.4368084491
  H         2.2532126768        5.3773384085        1.6550330058
  H         3.0894545450        5.0477065720        3.2193788744
  H         1.2427570091        3.4372500371        3.5122158600
  O         7.1626436323        5.7444578164        4.6745089349
  C         6.2930330670        6.3489349681        3.8379712026
  O         5.1229653382        5.6295341347        3.7237401793
  C         5.1933682052        4.4788303535        4.6324325350
  C         6.6731045685        4.4274760475        5.0459592365
  O         6.5031712395        7.3979515710        3.2420101505
  H         6.8178205193        4.2879245876        6.1329503756
  H         4.5185371577        4.6828748813        5.4879819683
  H         4.8767878013        3.5728283688        4.0804810451
  H         7.2577785846        3.6626960995        4.4982603197
  O         9.7681570038       -0.3718035654        0.0732105221
  C        10.1135385041        0.9417825851       -0.0785846915
  O        11.0685799223        1.1022322690       -1.0511066693
  C        11.4311852877       -0.2229077393       -1.5418037281
  C        10.2627199740       -1.0976301146       -1.0987349941
  O         9.6710253822        1.8607820649        0.5878308221
  H         9.4532511711       -1.1414208335       -1.8540919897
  H        11.5531611605       -0.1726145244       -2.6360939927
  H        12.3896603787       -0.5022577197       -1.0716431097
  H        10.5431020651       -2.1130184244       -0.7785984625
  O        16.4626474795        0.1944145024        0.3834834491
  C        15.5930565448        0.7992160533       -0.4531949468
  O        14.4229039301        0.0795839825       -0.5672036681
  C        14.4933706195       -1.0711844801        0.3414178382
  C        15.9731188725       -1.1225518433        0.7549903689
  O        15.8031251424        1.8476857643       -1.0488834417
  H        16.1178044917       -1.2620767246        1.8420089550
  H        13.8185397029       -0.8671350900        1.1969360876
  H        14.1767932459       -1.9771847393       -0.2105241446
  H        16.5577926745       -1.8873136646        0.2072457339
  O         9.7684259872        5.1779834624        0.0738704548
  C        10.1139110423        6.4913130559       -0.0784028103
  O        11.0686851313        6.6520246348       -1.0509880355
  C        11.4310743702        5.3268607150       -1.5419332047
  C        10.2621301378        4.4528015121       -1.0988733062
  O         9.6706050967        7.4109401148        0.5873098205
  H         9.4529456764        4.4091359494       -1.8545877199
  H        11.5533385485        5.3774423036       -2.6363079999
  H        12.3894054158        5.0475591700       -1.0713670636
  H        10.5422519132        3.4373917690       -0.7793771467
  O        16.4626467558        5.7444192668        0.3834395613
  C        15.5929947952        6.3490179405       -0.4530882569
  O        14.4228529806        5.6296526746       -0.5671653962
  C        14.4933720692        4.4788294317        0.3414230902
  C        15.9731305054        4.4274428873        0.7549956837
  O        15.8031682582        7.3978705474       -1.0490256616
  H        16.1178107049        4.2879095223        1.8420470915
  H        13.8185531275        4.6829055086        1.1969356609
  H        14.1767653835        3.5728051210       -0.2104960771
  H        16.5577870139        3.6626820629        0.2072036887
  O         9.7684437098       -0.3719795683        4.3645745298
  C        10.1138202607        0.9415347925        4.2125084385
  O        11.0686548101        1.1021799768        3.2399112404
  C        11.4311447560       -0.2228585520        2.7492314252
  C        10.2627496057       -1.0974947290        3.1924163742
  O         9.6708430938        1.8606533135        4.8783784411
  H         9.4534528781       -1.1417551084        2.4369201969
  H        11.5531385147       -0.1726469362        1.6550070984
  H        12.3896126072       -0.5021228384        3.2192658656
  H        10.5431278819       -2.1127074859        3.5125296308
  O        16.4626540608        0.1944480608        4.6745295068
  C        15.5930899858        0.7992110421        3.8378195161
  O        14.4229835740        0.0794959268        3.7237369926
  C        14.4933643042       -1.0711876612        4.6324484173
  C        15.9731078827       -1.1225201229        5.0459672443
  O        15.8031104381        1.8477046802        3.2421587653
  H        16.1178174567       -1.2620679622        6.1329375963
  H        13.8185320971       -0.8671229977        5.4879920274
  H        14.1767899849       -1.9771675663        4.0804796926
  H        16.5577762654       -1.8873017723        4.4982796581
  O         9.7682387361        5.1781315484        4.3645089297
  C        10.1137104271        6.4914837134        4.2124245623
  O        11.0686067446        6.6521260828        3.2399372019
  C        11.4311365792        5.3269438225        2.7491106063
  C        10.2624298445        4.4525698271        3.1922089109
  O         9.6708300305        7.4109625861        4.8786822660
  H         9.4531083567        4.4088527701        2.4366749046
  H        11.5532263028        5.3774332250        1.6547532105
  H        12.3895617871        5.0476520291        3.2194911215
  H        10.5427231957        3.4371663115        3.5120241598
  O        16.4626443957        5.7444204700        4.6744405471
  C        15.5929961472        6.3490159576        3.8379107890
  O        14.4228577982        5.6296461891        3.7238303778
  C        14.4933781809        4.4788305273        4.6324228457
  C        15.9731332846        4.4274424338        5.0459998299
  O        15.8031648100        7.3978710414        3.2419779082
  H        16.1178136040        4.2879125684        6.1330530420
  H        13.8185570314        4.6828961794        5.4879342201
  H        14.1767704926        3.5728071856        4.0805079492
  H        16.5577906644        3.6626810886        4.4982110154
  O         0.4681186819       10.7282111565        0.0731827320
  C         0.8134972666       12.0418091047       -0.0785870196
  O         1.7685727533       12.2022244449       -1.0511041114
  C         2.1311900290       10.8770825802       -1.5418190435
  C         0.9627090879       10.0023807533       -1.0987473638
  O         0.3710519993       12.9607801156        0.5878563060
  H         0.1532426573        9.9586082408       -1.8540947295
  H         2.2531623218       10.9273960493       -2.6361223452
  H         3.0896650204       10.5977243040       -1.0716384062
  H         1.2430810661        8.9869788488       -0.7786439537
  O         7.1626455481       11.2944131702        0.3834794169
  C         6.2930425049       11.8991917929       -0.4531858920
  O         5.1228951265       11.1795851342       -0.5671979783
  C         5.1933737681       10.0288271582        0.3414301191
  C         6.6731244295        9.9774519653        0.7549914090
  O         6.5031245552       12.9477068541       -1.0489036572
  H         6.8178164548        9.8379166141        1.8420158666
  H         4.5185512092       10.2328906010        1.1969483549
  H         4.8767724596        9.1228232175       -0.2104948680
  H         7.2577827260        9.2126862741        0.2072311575
  O         0.4680737373       16.2782138014        0.0732337385
  C         0.8134970402       17.5916495990       -0.0786307943
  O         1.7685524839       17.7521915111       -1.0510651252
  C         2.1311804704       16.4269934235       -1.5418774036
  C         0.9624832038       15.5524961994       -1.0988905587
  O         0.3709397412       18.5109493890        0.5879896193
  H         0.1530067206       15.5090134571       -1.8542556704
  H         2.2532409199       16.4774105212       -2.6362570995
  H         3.0895847919       16.1475486878       -1.0714587373
  H         1.2426796313       14.5369762232       -0.7790193323
  O         7.1626393656       16.8444314825        0.3834458054
  C         6.2929801887       17.4490178146       -0.4530953079
  O         5.1228612018       16.7296266274       -0.5671749420
  C         5.1933898028       15.5788245972        0.3414210846
  C         6.6731439813       15.5274523101        0.7549951863
  O         6.5031498811       18.4978716284       -1.0490288184
  H         6.8178013981       15.3879092394        1.8420490648
  H         4.5185458541       15.7828846090        1.1969180523
  H         4.8767719384       14.6728170506       -0.2105116549
  H         7.2577866830       14.7626730580        0.2072109888
  O         0.4683342246       10.7280666185        4.3644478277
  C         0.8136921638       12.0416228963        4.2124964264
  O         1.7686193643       12.2021887579        3.2399176637
  C         2.1311778436       10.8771246160        2.7492054086
  C         0.9627423399       10.0024699236        3.1923444824
  O         0.3708988486       12.9606780841        4.8785465822
  H         0.1533752716        9.9583660528        2.4369074908
  H         2.2531454567       10.9273632994        1.6549374230
  H         3.0896451219       10.5978125494        3.2193149187
  H         1.2431051789        8.9871981878        3.5124644260
  O         7.1626435314       11.2944300340        4.6745163542
  C         6.2930703432       11.8991814592        3.8378279230
  O         5.1229424170       11.1795397154        3.7237685490
  C         5.1933696184       10.0288296537        4.6324460026
  C         6.6731162699        9.9774634839        5.0459736413
  O         6.5031358710       12.9477099047        3.2421191657
  H         6.8178298670        9.8379240318        6.1329678099
  H         4.5185508131       10.2328953717        5.4879839661
  H         4.8767753135        9.1228331959        4.0805135845
  H         7.2577801330        9.2126900350        4.4982461731
  O         0.4683356204       16.2780985326        4.3644529777
  C         0.8137747907       17.5914852560        4.2123764864
  O         1.7686211460       17.7522021733        3.2399085129
  C         2.1311607305       16.4271159089        2.7492168175
  C         0.9627508043       15.5524538264        3.1923811095
  O         0.3708523115       18.5108253393        4.8786289188
  H         0.1533943480       15.5083207189        2.4369259728
  H         2.2531209010       16.4773678903        1.6549500082
  H         3.0896574229       16.1478448127        3.2192765305
  H         1.2431666935       14.5371840867        3.5125214168
  O         7.1626342379       16.8444480251        4.6744878879
  C         6.2930124194       17.4490002498        3.8379193350
  O         5.1229207491       16.7295634088        3.7237754595
  C         5.1933887608       15.5788401155        4.6324467500
  C         6.6731331598       15.5274620412        5.0459792776
  O         6.5031537322       18.4978761763        3.2420103693
  H         6.8178216667       15.3879173440        6.1329993282
  H         4.5185541468       15.7828992933        5.4879659672
  H         4.8767690352       14.6728441458        4.0805240050
  H         7.2577787887       14.7626772732        4.4982264830
  O         9.7683152256       10.7280692791        0.0733495145
  C        10.1136594123       12.0416553311       -0.0784868571
  O        11.0686166980       12.2022160840       -1.0510865845
  C        11.4311427747       10.8771432448       -1.5417997704
  C        10.2626137235       10.0025332213       -1.0988532197
  O         9.6709234719       12.9606343784        0.5875875796
  H         9.4531601463        9.9587634461       -1.8542111603
  H        11.5532240881       10.9273518357       -2.6360377766
  H        12.3894972016       10.5976531748       -1.0715785039
  H        10.5427561077        8.9871453354       -0.7788384924
  O        16.4626397411       11.2944268654        0.3835056989
  C        15.5930635806       11.8992574904       -0.4532246342
  O        14.4229236296       11.1795443487       -0.5672255154
  C        14.4933760685       10.0288310219        0.3414505359
  C        15.9731297355        9.9774549810        0.7549787387
  O        15.8031088440       12.9476380455       -1.0488484425
  H        16.1178336544        9.8379117060        1.8419793222
  H        13.8185613596       10.2329030631        1.1969783108
  H        14.1767666980        9.1228439029       -0.2104708318
  H        16.5577771701        9.2126854300        0.2072204078
  O         9.7684062336       16.2780469368        0.0734880674
  C        10.1138443102       17.5914256010       -0.0785960004
  O        11.0686445607       17.7522020704       -1.0511041532
  C        11.4311343687       16.4271527801       -1.5417632838
  C        10.2627251465       15.5525258892       -1.0986580894
  O         9.6708445332       18.5107325155        0.5874994260
  H         9.4533963538       15.5083861284       -1.8541083725
  H        11.5531684440       16.4773574475       -2.6359756246
  H        12.3895596719       16.1478243654       -1.0716969212
  H        10.5430267695       14.5372618185       -0.7785706642
  O        16.4626359183       16.8444508253        0.3835064201
  C        15.5930418058       17.4490641822       -0.4531107455
  O        14.4229442614       16.7295384499       -0.5672425976
  C        14.4933830485       15.5788361281        0.3414531952
  C        15.9731280717       15.5274633294        0.7549743015
  O        15.8031444254       18.4978157502       -1.0489367877
  H        16.1178330051       15.3879219182        1.8419739798
  H        13.8185578050       15.7828960023        1.1969842358
  H        14.1767770086       14.6728452830       -0.2104734293
  H        16.5577810465       14.7626844037        0.2072365813
  O         9.7680995498       10.7282053392        4.3641107595
  C        10.1134584633       12.0418288047        4.2124358417
  O        11.0685668002       12.2022408340        3.2398987794
  C        11.4311645225       10.8770930601        2.7491681951
  C        10.2625780814       10.0024608654        3.1920743557
  O         9.6710632209       12.9607335071        4.8788910612
  H         9.4530448516        9.9589859457        2.4367964624
  H        11.5532433136       10.9273853732        1.6548799928
  H        12.3895258546       10.5975648022        3.2194815316
  H        10.5427162083        8.9869464412        3.5120431497
  O        16.4626424242       11.2944120576        4.6744681219
  C        15.5930334620       11.8992673252        3.8377617716
  O        14.4228787431       11.1795859896        3.7238074422
  C        14.4933848353       10.0288227114        4.6324319407
  C        15.9731414421        9.9774453458        5.0459958160
  O        15.8030949574       12.9476364598        3.2421284193
  H        16.1178159821        9.8379066159        6.1330266997
  H        13.8185565362       10.2328878260        5.4879344713
  H        14.1767719822        9.1228334718        4.0805077160
  H        16.5577846664        9.2126803000        4.4982091203
  O         9.7681288397       16.2781882828        4.3641509826
  C        10.1135449056       17.5916333715        4.2123463059
  O        11.0685642384       17.7522432201        3.2399041647
  C        11.4311825687       16.4270989794        2.7491717060
  C        10.2626181505       15.5524663241        3.1921134561
  O         9.6709710003       18.5108360061        4.8789528144
  H         9.4531109196       15.5088792792        2.4368153700
  H        11.5532326536       16.4773885303        1.6548655544
  H        12.3895603240       16.1476033303        3.2194730395
  H        10.5427841363       14.5369827120        3.5121164820
  O        16.4626410357       16.8444314081        4.6744600060
  C        15.5930086783       17.4490742716        3.8378737901
  O        14.4228876374       16.7295922289        3.7238015454
  C        14.4933897529       15.5788281847        4.6324337635
  C        15.9731413670       15.5274524349        5.0459881599
  O        15.8031321068       18.4978122589        3.2420334498
  H        16.1178221403       15.3879077438        6.1330208531
  H        13.8185591619       15.7828882164        5.4879434431
  H        14.1767758496       14.6728292075        4.0805087511
  H        16.5577871557       14.7626826698        4.4982127968
  O         0.4680943842       -0.3717958522        8.6551811125
  C         0.8134689575        0.9417605805        8.5034061924
  O         1.7685492523        1.1022142396        7.5309012130
  C         2.1312135639       -0.2229422014        7.0401436523
  C         0.9626774122       -1.0975964531        7.4832083279
  O         0.3710268583        1.8608169283        9.1699241207
  H         0.1532000797       -1.1413133388        6.7278719107
  H         2.2531640615       -0.1725915374        5.9458006769
  H         3.0896701623       -0.5023170902        7.5104126512
  H         1.2430057790       -2.1130162578        7.8032807247
  O         7.1626374050        0.1944004538        8.9654291760
  C         6.2929859767        0.7991488955        8.1288197249
  O         5.1228221388        0.0796552326        8.0148542046
  C         5.1933977944       -1.0711651417        8.9234291631
  C         6.6731606500       -1.1225723795        9.3370166115
  O         6.5031297570        1.8477397186        7.5330257667
  H         6.8178262305       -1.2620980842       10.4240912148
  H         4.5185763115       -0.8670943059        9.7789169722
  H         4.8767637984       -1.9771792790        8.3715391865
  H         7.2577986115       -1.8873298627        8.7891756397
  O         0.4683080904        5.1781050385        8.6553855797
  C         0.8137735919        6.4914060001        8.5033310762
  O         1.7686121757        6.6522205724        7.5309048270
  C         2.1311190808        5.3271268573        7.0402199486
  C         0.9626131491        4.4525484016        7.4832242520
  O         0.3708492645        7.4108435446        9.1697047862
  H         0.1532051513        4.4087000267        6.7278425048
  H         2.2532037529        5.3773495834        5.9459761189
  H         3.0894955212        5.0476804827        7.5104038051
  H         1.2427807354        3.4371600081        7.8032077015
  O         7.1626302379        5.7444492591        8.9654981118
  C         6.2930168565        6.3489344419        8.1289614001
  O         5.1229344629        5.6295673176        8.0147563005
  C         5.1933800309        4.4788144549        8.9233888806
  C         6.6731093212        4.4274616178        9.3369713359
  O         6.5031804883        7.3979400400        7.5329894974
  H         6.8177781150        4.2879352746       10.4239892324
  H         4.5185134858        4.6828072461        9.7789092973
  H         4.8768265077        3.5728189185        8.3714161820
  H         7.2578000441        3.6626775701        8.7892750358
  O         0.4682825029       -0.3719164898       12.9463714035
  C         0.8136415906        0.9416064907       12.7944663040
  O         1.7685985709        1.1022059145       11.8219264070
  C         2.1311893137       -0.2228710278       11.3311885605
  C         0.9627073686       -1.0975115558       11.7742658277
  O         0.3708904520        1.8607092594       13.4606691061
  H         0.1532884091       -1.1414778094       11.0188863839
  H         2.2531651852       -0.1726374926       10.2368981247
  H         3.0896201133       -0.5022646751       11.8013679693
  H         1.2429725528       -2.1128472731       12.0943439526
  O         7.1626342129        0.1944197319       13.2564701276
  C         6.2930182270        0.7991380900       12.4198329434
  O         5.1228802943        0.0795958573       12.3058045514
  C         5.1933900253       -1.0711660797       13.2144342231
  C         6.6731425025       -1.1225570555       13.6279950380
  O         6.5031335056        1.8477468975       11.8240600745
  H         6.8178282262       -1.2620891086       14.7150340443
  H         4.5185667824       -0.8671083412       14.0699443764
  H         4.8767757018       -1.9771672467       12.6625247125
  H         7.2577917545       -1.8873235590       13.0802059162
  O         0.4684539396        5.1780349209       12.9465803799
  C         0.8139298877        6.4913034540       12.7943656415
  O         1.7686562702        6.6521930110       11.8219055731
  C         2.1311140907        5.3271475463       11.3312482547
  C         0.9627209904        4.4525471282       11.7744014325
  O         0.3707714078        7.4108029322       13.4604596947
  H         0.1534315317        4.4083028486       11.0189107221
  H         2.2531450756        5.3773467488       10.2370375625
  H         3.0895612917        5.0478573028       11.8012737487
  H         1.2430552565        3.4373153812       12.0944812416
  O         7.1626487160        5.7444537874       13.2565053623
  C         6.2930359450        6.3489380203       12.4199706531
  O         5.1229754551        5.6295219154       12.3057304170
  C         5.1933692467        4.4788125264       13.2144079266
  C         6.6730977916        4.4274801460       13.6279647470
  O         6.5031567463        7.3979607065       11.8240223266
  H         6.8177833590        4.2879392228       14.7149582072
  H         4.5185092019        4.6828235533       14.0699461338
  H         4.8768209448        3.5728221931       12.6624209845
  H         7.2577908721        3.6626937877       13.0802998993
  O         9.7683835086       -0.3719487522        8.6554807471
  C        10.1137712265        0.9415599597        8.5034846181
  O        11.0686370595        1.1021887808        7.5308963731
  C        11.4311210922       -0.2228724844        7.0402249673
  C        10.2626506238       -1.0974593295        7.4832939540
  O         9.6709014518        1.8606608440        9.1694637341
  H         9.4533054435       -1.1414603597        6.7278527053
  H        11.5531956652       -0.1726455009        5.9460105732
  H        12.3895147993       -0.5022392247        7.5103583020
  H        10.5428879179       -2.1127648411        7.8033118662
  O        16.4626527140        0.1944304090        8.9655460184
  C        15.5931251737        0.7992050990        8.1288353035
  O        14.4229827306        0.0795257722        8.0147435707
  C        14.4933407549       -1.0711834982        8.9234271256
  C        15.9730812379       -1.1225327509        9.3369583683
  O        15.8031592326        1.8476926006        7.5331622368
  H        16.1178267554       -1.2620582977       10.4239207205
  H        13.8185347885       -0.8671322644        9.7789993694
  H        14.1768040132       -1.9771925756        8.3714686905
  H        16.5577881456       -1.8872904247        8.7892859717
  O         9.7680679064        5.1782381159        8.6550698349
  C        10.1135146116        6.4916239929        8.5032612872
  O        11.0685505652        6.6522588200        7.5308933796
  C        11.4312140312        5.3271011667        7.0401503372
  C        10.2627183042        4.4523976756        7.4831590134
  O         9.6710031938        7.4109192986        9.1700650399
  H         9.4532114146        4.4087114909        6.7278657052
  H        11.5531808498        5.3774273266        5.9458230333
  H        12.3896643626        5.0476807780        7.5103827590
  H        10.5430223256        3.4369464510        7.8032550028
  O        16.4626451007        5.7444286597        8.9654601894
  C        15.5930115457        6.3490069977        8.1289203497
  O        14.4228924938        5.6296069699        8.0148075830
  C        14.4933721892        4.4788548388        8.9234692175
  C        15.9731309487        4.4274485974        9.3369837719
  O        15.8031617123        7.3978735172        7.5330018067
  H        16.1178582515        4.2879000372       10.4240095168
  H        13.8185845393        4.6829628817        9.7790071331
  H        14.1767328902        3.5728304687        8.3715838238
  H        16.5577738547        3.6626907250        8.7891894378
  O         9.7681914182       -0.3718195018       12.9462280497
  C        10.1135838267        0.9417546007       12.7944207436
  O        11.0685897349        1.1022306480       11.8218845964
  C        11.4311653063       -0.2229041151       11.3312005339
  C        10.2626893551       -1.0976035388       11.7742358074
  O         9.6710190312        1.8607646939       13.4607797968
  H         9.4532274452       -1.1413595970       11.0188709261
  H        11.5531793956       -0.1726159968       10.2369322961
  H        12.3896100751       -0.5022727144       11.8013701668
  H        10.5430280333       -2.1129965989       12.0943473689
  O        16.4626547125        0.1944144738       13.2565032067
  C        15.5930878612        0.7992131173       12.4198204072
  O        14.4229304727        0.0795694139       12.3057840103
  C        14.4933544400       -1.0711788381       13.2144275835
  C        15.9731024684       -1.1225446029       13.6279777041
  O        15.8031414823        1.8476875208       11.8241339141
  H        16.1178254844       -1.2620710335       14.7149737919
  H        13.8185466369       -0.8671166356       14.0699744667
  H        14.1767885926       -1.9771918363       12.6624900495
  H        16.5577893664       -1.8872976853       13.0802540040