    1000
 i =      598, E =     -6750.3673902085
  O         4.4203558304       18.6813730017       10.4018594881
  C         5.0922099884       17.5385844504       10.0734021982
  O         4.3432251625       16.6898888540        9.3115975619
  C         3.0175906236       17.2740745962        9.1105944532
  C         3.0110948200       18.5178764608       10.0207564390
  O         6.2462636766       17.3147095578       10.4137542138
  H         2.6837433102       19.4394867096        9.5076227937
  H         2.8973938172       17.5186663871        8.0372617884
  H         2.2710936134       16.5201102502        9.4113091265
  H         2.4269045445       18.3574990212       10.9470993358
  O         1.2169425536       11.9681944315       10.5062666636
  C         2.3456616837       12.5704987529       10.0593729647
  O         2.1632019526       13.9141552920        9.8606062001
  C         0.7325057667       14.2018387046       10.0161922207
  C         0.2041048963       12.9835981724       10.7832010111
  O         3.3998727891       11.9814104219        9.8579718847
  H         0.1639801850       13.1307350574       11.8815812512
  H         0.6288762843       15.1509104517       10.5756245069
  H         0.2882673278       14.2785684282        9.0041049382
  H        -0.7720550283       12.6259032904       10.4082090001
  O        14.2468341435        3.8710576336       11.6954746967
  C        13.4484991065        4.6995628030       12.4200100676
  O        12.8308188100        4.0470148543       13.4465694710
  C        13.1165862023        2.6095325606       13.3336866259
  C        14.2464147029        2.5348533488       12.2932486342
  O        13.3005501929        5.8930697465       12.1670386878
  H        15.2408010402        2.3669822322       12.7500971971
  H        13.4367112183        2.2396999759       14.3225516687
  H        12.1881489109        2.0937674573       13.0169018808
  H        14.0561535231        1.7944614304       11.4946714264
  O         8.3892312297       13.7176011479        8.9408343756
  C         7.8845046172       13.3322555864       10.1479374047
  O         6.5209646084       13.2656370423       10.1314573323
  C         6.0392969715       13.6195499373        8.7913953151
  C         7.3224383143       13.6284407587        7.9405982017
  O         8.5765841226       13.0911924158       11.1338229498
  H         7.4673511160       12.6842111138        7.3760193594
  H         5.3147709412       12.8410604029        8.4892201672
  H         5.5481847224       14.6105810422        8.8679632587
  H         7.4096197789       14.5011956824        7.2656789035
  O         6.0374169935        2.9498725332        6.8034184189
  C         5.5821380732        4.0533344646        6.1368689674
  O         5.2795530635        5.0658446994        6.9958309160
  C         5.2751258957        4.5323241442        8.3560184732
  C         6.1372627585        3.2690054763        8.2278227345
  O         5.4813633107        4.1375454432        4.9145844879
  H         7.2104735396        3.4298109401        8.4580488147
  H         5.7049638971        5.2954298768        9.0288441202
  H         4.2239205522        4.3206505197        8.6376301269
  H         5.7422944849        2.4152439258        8.8085552079
  O         1.1317533964        5.0648718168       16.8473239247
  C         1.0225541701        5.4874564250       18.1299093319
  O         0.1780219644        6.5500150279       18.2410464866
  C        -0.5197811154        6.7212513948       16.9650903809
  C         0.3831657465        5.9749189865       15.9766096093
  O         1.6061645182        4.9732795832       19.0769919819
  H        -0.1847813537        5.3683357373       15.2485543118
  H        -1.5200673078        6.2488528879       17.0597754305
  H        -0.6300711994        7.7984035101       16.7413020048
  H         1.1026909370        6.6352787035       15.4541323130
  O         8.5720914091       14.7399078741       18.3458658793
  C         9.4061014643       15.6124596885       17.7192143043
  O         9.2423507586       16.8792824008       18.1476660504
  C         8.2073336477       16.9351289309       19.1731141224
  C         7.8032097612       15.4551765278       19.3664893141
  O        10.2015674531       15.2833415291       16.8466337806
  H         8.0918773959       15.0542640118       20.3572377483
  H         8.6505369992       17.3865170119       20.0798404198
  H         7.3850581722       17.5681502698       18.7856933870
  H         6.7286178400       15.2655477991       19.1766417920
  O        -0.0064206877       17.7826201964        8.9348396218
  C        -0.5546111375       18.4430723814       10.0069156916
  O        -1.7906714679       17.9726774803       10.3133269231
  C        -2.0932451244       16.8505227524        9.4256624708
  C        -1.0845338366       17.0265764633        8.2878072201
  O         0.0042793621       19.3537101326       10.6001855499
  H        -0.6802768080       16.0756117962        7.8967286682
  H        -1.9335393152       15.9187689645        9.9957301195
  H        -3.1497625842       16.9386581662        9.1155625381
  H        -1.4781100350       17.6413791478        7.4515271722
  O         7.7185499965       12.6286962626       16.1124989908
  C         6.5755170358       13.3296967311       16.3273305157
  O         5.9625969245       12.9839793873       17.4956468283
  C         6.6994052914       11.8712313793       18.1017749087
  C         7.9841211508       11.7724613466       17.2615985055
  O         6.1365526334       14.1874877646       15.5668670547
  H         8.8608362244       12.1869339144       17.7856411495
  H         6.8978729164       12.1371101011       19.1565973689
  H         6.0587851685       10.9714780662       18.0248078118
  H         8.2007553229       10.7571259730       16.8843868627
  O         4.4186447880        9.3833049229        4.9734837445
  C         5.3412779325       10.1694294276        5.5941375380
  O         6.4180000469       10.4061142035        4.7900983017
  C         6.1595311717        9.8040234662        3.4748852130
  C         4.9887552033        8.8548140185        3.7394820241
  O         5.1943700082       10.6046463491        6.7284844184
  H         4.2146499544        8.8825723962        2.9527176515
  H         5.8920092645       10.6287405847        2.7894034229
  H         7.0701867095        9.2790759187        3.1385286204
  H         5.3221459185        7.8114953360        3.9230698200
  O         2.3622416687       17.3261313442       17.6141589854
  C         3.0529974839       17.0777017752       18.7620633089
  O         4.2499863676       16.4911126675       18.5194459736
  C         4.4781869547       16.4101170403       17.0761585549
  C         3.2363908491       17.0877666788       16.4647474228
  O         2.6332213675       17.3197281586       19.8928456769
  H         3.4435164548       18.0755550486       16.0103949323
  H         5.4110359488       16.9678772232       16.8623029345
  H         4.5704996900       15.3446042836       16.8075444175
  H         2.6817988520       16.4345071870       15.7653909230
  O         1.8814711584        2.5646199974        4.6126194539
  C         2.2962585502        2.0396351242        5.8094179220
  O         1.6994892502        0.8350152513        6.0742100748
  C         0.9467635151        0.4155950591        4.8889497994
  C         0.8063183161        1.7180188985        4.0849488287
  O         3.1098135366        2.5772886562        6.5453351763
  H         0.9835878115        1.5719556842        3.0028012304
  H         1.5440316537       -0.3507202355        4.3548198099
  H        -0.0233374427        0.0000668831        5.2200961467
  H        -0.1558723856        2.2314355952        4.2800465339
  O         6.6119504075        7.9361309724        8.2923312006
  C         7.1402822322        9.1437309936        8.6751717286
  O         8.1103074881        9.5743448064        7.8245825477
  C         8.4070910378        8.5153744635        6.8637735742
  C         7.2351690676        7.5319530459        7.0322953514
  O         6.7898239097        9.7637241459        9.6705085675
  H         6.4732272720        7.6045524513        6.2329384458
  H         8.4631688403        8.9605377364        5.8537628766
  H         9.3822266445        8.0664663520        7.1432676486
  H         7.5641988408        6.4803897557        7.1191990564
  O        10.6482290900       15.2985722278       13.6415624235
  C        10.5621223491       16.6105247090       14.0227835937
  O         9.2604294303       17.0199907860       14.1818683701
  C         8.3910047032       15.9167216167       13.7808812918
  C         9.3221279098       14.6968894985       13.8044114834
  O        11.5278861624       17.3349520449       14.1932255714
  H         9.3010623001       14.1729840549       14.7802854173
  H         7.5638312362       15.8306807286       14.5102424284
  H         7.9989639969       16.1385052108       12.7633638120
  H         9.1485695073       13.9999378198       12.9661015634
  O        15.9508248728        2.5759174367        6.4523810834
  C        14.6803825323        2.3530177378        6.9023081807
  O        14.3462279479        3.2181147977        7.9152425392
  C        15.5603162847        3.9267040852        8.3346904632
  C        16.5163232918        3.7287469919        7.1460238057
  O        13.9576696901        1.4779469294        6.4519752851
  H        16.5205349493        4.5836825196        6.4391621713
  H        15.2973799918        4.9836297292        8.5234323736
  H        15.9205708934        3.4641725819        9.2760336010
  H        17.5482101215        3.4838339149        7.4512807127
  O        11.0357357130        4.8798244062        7.0912410304
  C        10.4676911390        4.2039812127        8.1242032298
  O        11.0430519377        4.5173265380        9.3145520983
  C        12.0972551401        5.5118646457        9.1118881568
  C        12.1334835529        5.7085252906        7.5821354523
  O         9.5309956708        3.4154214895        8.0133139721
  H        11.9504110697        6.7521536863        7.2654751121
  H        11.8261486988        6.4333706161        9.6588954141
  H        13.0332189013        5.1002357878        9.5308486966
  H        13.0661196371        5.3376369994        7.1154802924
  O        -1.1337627152        7.8207137504       13.5347860495
  C        -0.7917705781        9.1421557448       13.6672613041
  O        -0.7516522157        9.7677527451       12.4499714250
  C        -0.9302687955        8.7789051353       11.4036907249
  C        -1.5161580204        7.5677411363       12.1453060205
  O        -0.5631314838        9.6753196632       14.7397119753
  H        -2.6218812319        7.5075658945       12.0897209223
  H        -1.6155906431        9.2087825228       10.6490197553
  H         0.0607254195        8.5685557699       10.9459897177
  H        -1.0771154629        6.6060069018       11.8228865900
  O        11.7129866444        9.6755837974       14.0904743254
  C        10.4494306006       10.0709613315       14.4220818743
  O         9.9081105157       10.8744610617       13.4630463708
  C        10.9791926679       11.3025346254       12.5636070524
  C        12.0590089831       10.2294170038       12.7730021105
  O         9.9025870655        9.7600359341       15.4738925709
  H        11.9970939891        9.4102401908       12.0294375444
  H        10.5583249513       11.3389548954       11.5460027893
  H        11.3076885451       12.3159812771       12.8766149192
  H        13.0857812576       10.6433987032       12.8292400558
  O         9.0676290353        7.2025774119        9.8784236927
  C         9.5710717003        8.0775131374       10.8179554739
  O         9.5278029745        7.5452008684       12.0715679020
  C         9.1518673568        6.1327298019       11.9601419097
  C         8.4416944460        6.0904481033       10.6047609019
  O         9.9947589946        9.1998735672       10.5824448779
  H         8.6224939677        5.1561797496       10.0429481800
  H        10.0858545689        5.5326923569       11.9775903993
  H         8.5150420782        5.8661730117       12.8232553326
  H         7.3538183050        6.2972004240       10.6796174946
  O         2.2688854292        6.5363752467        6.1698054097
  C         1.5947851805        7.7045763410        6.0677485756
  O         1.1357998987        7.9248584082        4.7953196159
  C         1.4979385028        6.7870383432        3.9561222406
  C         2.4627952292        5.9708735573        4.8386587631
  O         1.4067463398        8.4728606932        7.0048507178
  H         2.2228846654        4.8935713272        4.8820269660
  H         0.5691296777        6.2388919625        3.7046636406
  H         1.9569568369        7.1687552179        3.0251364178
  H         3.5317716544        6.0924829692        4.5702313399
  O         6.7815683704       17.2330541207        6.2630454439
  C         7.3953249132       17.5458939442        5.0900799322
  O         6.5090116744       17.6930428585        4.0604691584
  C         5.1584069279       17.7518016345        4.6149791059
  C         5.3330122620       17.2239571362        6.0539309030
  O         8.6060041638       17.6826439128        4.9691534553
  H         4.8810212295       17.8976930834        6.8061525281
  H         4.8423753640       18.8159325251        4.5954039674
  H         4.4933666358       17.1344533754        3.9823231122
  H         4.9823502228       16.1812111052        6.1740129879
  O         0.9400674665       12.6974185033       15.7511932169
  C         1.5318204137       13.8179287439       16.2245147705
  O         0.7533021982       14.9242084482       16.0297533898
  C        -0.3501534474       14.5413170195       15.1278199350
  C        -0.4258673932       13.0255707334       15.3236115866
  O         2.6338285849       13.8260324361       16.7711725063
  H        -1.1194633074       12.7250398238       16.1368204166
  H        -1.2625230280       15.0846220118       15.4298116000
  H        -0.0559017536       14.8424769366       14.1021909329
  H        -0.6610044481       12.4520755034       14.4111452817
  O        11.6989434342       15.7641788758        4.5940303596
  C        11.3143912058       16.1570983744        3.3468101024
  O        11.5084913875       17.4906491022        3.1392533144
  C        11.8803965501       18.1024367657        4.4220028057
  C        12.3637890244       16.9029564960        5.2465749022
  O        10.8596435235       15.3913492531        2.4962628388
  H        13.4603759680       16.7517754759        5.1750998067
  H        12.6662046176       18.8537229963        4.2342952658
  H        10.9674740224       18.5724161571        4.8381493536
  H        12.0582429621       16.9218551861        6.3071360226
  O         5.6639930171       11.2286437977       13.8991315337
  C         6.0034533448       10.1417568048       14.6440314029
  O         6.8758870307        9.3138347849       14.0045583391
  C         6.9771885028        9.7527471582       12.6132424276
  C         6.4187258442       11.1818291521       12.6432907745
  O         5.5698821675        9.9445371949       15.7727061766
  H         7.2152262239       11.9483494741       12.6950236133
  H         8.0362162088        9.7162054447       12.3115994707
  H         6.3689829923        9.0649433683       11.9948807675
  H         5.7309061612       11.3959975062       11.8048802903
  O         8.5913550589        4.9610333746        5.0749549598
  C         8.1795563118        5.6210432071        3.9642941873
  O         8.1191769743        4.7971278932        2.8679673857
  C         8.3821600942        3.4229447463        3.3165763771
  C         9.0408774703        3.6219548232        4.6886908887
  O         7.9175808456        6.8185489523        3.9546854461
  H         8.7044891634        2.9105052716        5.4643527042
  H         7.4080559518        2.8971969880        3.3887697415
  H         9.0379840813        2.9333266512        2.5735761632
  H        10.1493091535        3.6401733721        4.6403625109
  O         5.0123395077        2.9410490485       13.0871533973
  C         5.7992942378        3.5782040351       12.1750959608
  O         6.9826431923        2.9457469547       11.9781032238
  C         7.1005055550        1.8399133754       12.9293868017
  C         5.6805568740        1.7114830766       13.5221297366
  O         5.4716110077        4.6139551665       11.6049927091
  H         5.1097954336        0.8602730772       13.0979383244
  H         7.4132745961        0.9445675580       12.3610982537
  H         7.8651446416        2.1218245241       13.6811046797
  H         5.6703269330        1.6901122343       14.6299110195
  O        16.3354783375        1.8494892634       14.9329309512
  C        15.9858428875        2.8396009607       15.7887777485
  O        16.5139917542        2.6656898124       17.0383827095
  C        17.2602075943        1.3996969913       17.0521490250
  C        17.3894681778        1.0429027284       15.5611642396
  O        15.2755502461        3.7924574804       15.4805738974
  H        18.3582604565        1.3635439172       15.1321648015
  H        18.2408967788        1.5764074928       17.5327656628
  H        16.6700932756        0.6656730011       17.6368231840
  H        17.1775173993       -0.0158862588       15.3369097424
  O         3.8608252148       15.9374759683       12.2590593462
  C         2.5929008733       15.6358452035       12.6729362854
  O         2.5367984538       14.4017214292       13.2619061558
  C         3.8432422903       13.7501706540       13.1649509763
  C         4.7770586146       14.8854018400       12.7064594546
  O         1.6253539685       16.3797129611       12.5285468226
  H         5.3809587982       15.2879244256       13.5425281311
  H         4.1074464341       13.3484375955       14.1598313691
  H         3.7587940612       12.9270152607       12.4281813712
  H         5.4232429737       14.6057521140       11.8534805642
  O        11.8899437156        7.1864131210        4.6034318157
  C        12.7647377304        8.2243240452        4.6762835433
  O        13.0924630758        8.7206349609        3.4492255641
  C        12.4499227794        7.9010696095        2.4225971009
  C        11.4719195215        7.0081945001        3.2141594934
  O        13.2114785473        8.6698620487        5.7263273854
  H        10.4188135378        7.3440306263        3.1348215103
  H        11.9569251444        8.5759888295        1.7018152978
  H        13.2471449358        7.3298573307        1.9123017562
  H        11.5611537663        5.9310658184        2.9670336052
  O         3.5904867853       14.6499762181        3.5864110644
  C         4.7939530603       14.0442263613        3.7705364337
  O         4.9073983918       12.9007193588        3.0348607339
  C         3.7823660946       12.8231810384        2.0969676983
  C         2.8143873009       13.9053432211        2.6002016460
  O         5.6651443641       14.4640280713        4.5219550325
  H         2.5195774365       14.6029127360        1.7962420045
  H         4.1597432058       13.0392853851        1.0819739569
  H         3.3609081236       11.8064444976        2.1597325576
  H         1.9316498078       13.4832373528        3.1147126687
  O         0.9321448594       12.2714957689        7.1736042045
  C         0.7939165303       13.2575943416        6.2371314291
  O         1.8876960388       13.3561433292        5.4386024612
  C         2.8986649149       12.4052012298        5.8955768362
  C         2.1039921352       11.4610065955        6.7986796356
  O        -0.1832171761       13.9917827904        6.1019980910
  H         1.7316053487       10.5649183972        6.2704800417
  H         3.3067307926       11.8938189531        5.0063081818
  H         3.6932420293       12.9717316229        6.4223047319
  H         2.6431198260       11.1692156693        7.7149924800
  O         6.1369507706        3.5123710990       18.3329408930
  C         5.7646432051        2.2528817974       17.9837337920
  O         4.6967824166        1.8302891322       18.7058274980
  C         4.1304113763        2.9480031974       19.4515996944
  C         5.1987319128        4.0504224836       19.3206955336
  O         6.3293947889        1.5652053178       17.1384895347
  H         4.7936367134        5.0057896835       18.9330330451
  H         3.1664772251        3.2261808844       18.9837275120
  H         3.9663664946        2.6250000575       20.4974278015
  H         5.7502478918        4.2381069138       20.2584175605
  O        12.6250553145       11.8927400899        0.6463353752
  C        13.8205814191       12.4416095003        0.3120908335
  O        13.8725700855       12.7997907221       -1.0035242668
  C        12.6895994051       12.2755918733       -1.6709674742
  C        11.7302288656       11.9818691327       -0.5042078069
  O        14.7304117388       12.6262039774        1.1138192778
  H        11.0204808565       12.8168920892       -0.3243102065
  H        12.3122654946       13.0559789348       -2.3617211988
  H        12.9907144498       11.3662198269       -2.2280621198
  H        11.1938670911       11.0208437087       -0.6055029807
  O         7.7408597536        6.4507064418       -1.9287886390
  C         8.7560148254        5.5496072373       -1.8474734746
  O         9.5233607818        5.7225177479       -0.7338379399
  C         9.0922208960        6.9540423905       -0.0567940390
  C         7.7434468868        7.2872021783       -0.7232445965
  O         8.9626404389        4.6777339150       -2.6836443409
  H         6.8629327166        7.0087615455       -0.1106593090
  H         8.9987150777        6.7402600170        1.0234849733
  H         9.8643593702        7.7269799935       -0.2430981180
  H         7.6544984449        8.3385773975       -1.0511195791
  O        -0.5572358354       10.5063971750        3.8595305885
  C         0.4314691341       10.3651386339        2.9260378087
  O         0.0889766229        9.4934571215        1.9384806413
  C        -1.2434308667        8.9524351792        2.2129501822
  C        -1.7533756265        9.8052760244        3.3889277354
  O         1.5031842227       10.9607914696        2.9559209289
  H        -2.4917125463       10.5675551027        3.0669251124
  H        -1.8611986301        9.0749747641        1.3026754356
  H        -1.1275773869        7.8840040064        2.4669327574
  H        -2.1537627619        9.1977743183        4.2204100063
  O        10.4976073716       -0.5452977304       10.6637697915
  C        11.6611334947       -0.1068522089       10.0842850690
  O        11.5013331922        0.1796629739        8.7600465434
  C        10.0696269695        0.0783299442        8.4421412175
  C         9.5340521054       -0.7944019326        9.5814111851
  O        12.7269696776        0.0010148843       10.6843808390
  H         8.5254519154       -0.5065521038        9.9318410812
  H         9.6582298638        1.1089006030        8.4314525027
  H         9.9603042678       -0.3926585624        7.4469662273
  H         9.5751969931       -1.8748706966        9.3362771144
  O        14.6161874527       14.5617194561        6.6368092313
  C        15.0072005216       13.7284599757        7.6411476288
  O        14.9073214503       12.4237512457        7.2756220476
  C        14.6185773841       12.3611093529        5.8503356185
  C        14.0257695434       13.7490481388        5.5789035490
  O        15.3784744355       14.0939279064        8.7488928980
  H        14.3198424048       14.1857722087        4.6078258436
  H        15.5777107129       12.1917206717        5.3178636238
  H        13.9243854793       11.5151685416        5.6775454412
  H        12.9221181920       13.7947534744        5.6873372844
  O         9.5287481681       11.4349454074        2.2164409252
  C         9.6135150072       10.1493826065        2.6554194971
  O        10.3817443990       10.0482093114        3.7794697629
  C        11.0614814187       11.3399067425        3.9593733681
  C        10.1223255770       12.3039454602        3.2395096249
  O         9.0596367627        9.2059630939        2.1101432598
  H         9.3014870472       12.6664181853        3.8946673854
  H        11.1480330871       11.5408450763        5.0413737772
  H        12.0551536420       11.2616337420        3.4691221642
  H        10.6178065504       13.1578170977        2.7428207366
  O        13.5896763267       17.7835922753       16.7571889039
  C        14.3488832807       16.8160368255       16.1554677605
  O        14.3330855235       15.6566520669       16.8673090932
  C        13.3111049265       15.7573257242       17.9050193268
  C        13.0713290426       17.2699407381       18.0231265687
  O        14.9885114588       16.9580323532       15.1213815796
  H        11.9991052051       17.5269073298       18.1020136266
  H        12.4055167224       15.2232404819       17.5566731730
  H        13.7060944468       15.2905916616       18.8263544253
  H        13.6427347505       17.7491820377       18.8439302138
  O        12.6415562183        7.6467203079       17.0427823270
  C        13.6615096197        8.5514837632       16.9119462853
  O        14.4362599084        8.2845925569       15.8341714469
  C        13.8406408901        7.1905046368       15.0664659483
  C        12.8056050526        6.5972443146       16.0343377810
  O        13.8643792614        9.4798029223       17.6868155938
  H        11.8220386328        6.4090697792       15.5660055693
  H        13.3823894649        7.6163241036       14.1542153857
  H        14.6413775452        6.4797191843       14.7939778967
  H        13.1593073737        5.6794305954       16.5474457652
  O        15.6594522717        4.2402074359        3.9439248863
  C        15.4838064411        5.5671137207        3.6891095567
  O        15.0961526693        5.7990935965        2.3985762051
  C        14.8227544828        4.5023377519        1.7650577093
  C        15.5725553356        3.5189539628        2.6664507337
  O        15.6600971321        6.4522858232        4.5167439451
  H        15.0463698148        2.5640079002        2.8386881949
  H        13.7288783672        4.3400111506        1.7829700797
  H        15.2029974673        4.5201594991        0.7270130704
  H        16.6084355060        3.3277020120        2.3160016649
  O        12.1648133182        3.4994985524       17.6651502196
  C        11.5554195933        2.9675181616       18.7589717938
  O        10.5564541613        2.1155545518       18.4266679673
  C        10.3128627684        2.2065352102       16.9826858373
  C        11.6015725243        2.8596708311       16.4664730576
  O        11.8846902838        3.2283879093       19.9138339260
  H        12.3406797032        2.1151653131       16.1139762232
  H        10.1466911774        1.1830572512       16.5981238203
  H         9.4106289188        2.8305236383       16.8272869120
  H        11.4188922377        3.6400693777       15.7056367946
  O        15.0902931629       14.6402408632       12.8927652663
  C        14.6624917557       13.3951786900       12.5295621520
  O        13.5795503019       13.4477128760       11.7056101572
  C        13.2721941558       14.8475141890       11.4032756603
  C        14.0889764724       15.6230519564       12.4490943149
  O        15.1868736527       12.3477853593       12.8971353634
  H        14.6215929330       16.5024674778       12.0499304361
  H        13.5821637704       15.0272397840       10.3564479452
  H        12.1823501430       14.9910714654       11.5144509569
  H        13.4901699165       15.9299294670       13.3276405184
  O         2.9271042883        8.2023662708       16.8613635753
  C         3.8413239626        8.5357151776       17.8144590271
  O         3.7726331522        9.8528180061       18.1502448539
  C         2.8585818503       10.5307372152       17.2257792731
  C         2.0842473057        9.3738886690       16.5832304690
  O         4.6190690516        7.7377261122       18.3340052807
  H         1.1058452246        9.2033597289       17.0733313320
  H         2.2149755183       11.2059764537       17.8160466530
  H         3.4772459989       11.1042777580       16.5105856703
  H         1.9634929468        9.4592316079       15.4894560178
  O         4.3366050367        3.7016491704       16.1180717451
  C         3.2192865338        3.4565386672       15.3843239175
  O         2.8379214467        4.5289752495       14.6457097179
  C         3.8785841768        5.5565033045       14.7367724659
  C         4.7148371469        5.1051364127       15.9423493750
  O         2.6344965685        2.3832984559       15.3847052351
  H         5.8036065456        5.1493382333       15.7635793717
  H         4.4419929243        5.5458400864       13.7813700791
  H         3.3926159340        6.5383914942       14.8799079197
  H         4.4545920177        5.6580009047       16.8670992163
  O        14.8120819079        9.6853897390        8.2919831333
  C        14.1214187737        8.5994482754        8.7292042314
  O        14.8103391763        7.4477701658        8.4779127954
  C        15.9815024504        7.7418614626        7.6472976902
  C        16.0769924464        9.2794511228        7.6913624039
  O        13.0358849311        8.6562317925        9.2983534266
  H        16.9039841034        9.6608822349        8.3228896119
  H        16.8587695922        7.2305484292        8.0901601174
  H        15.7800417430        7.3539137391        6.6299808581
  H        16.1507655453        9.7384489283        6.6879582183