    2000
 i =      556, E =    -13500.7631680418
  O         4.4330445841       18.6720024532       10.4089716553
  C         5.0910866674       17.5236695882       10.0760653523
  O         4.3355382632       16.7012801327        9.3036905298
  C         3.0095989048       17.2877033157        9.1186359368
  C         3.0220372003       18.5352375541       10.0242186462
  O         6.2396549540       17.2655475740       10.4143745003
  H         2.7145135797       19.4613127905        9.5060945826
  H         2.8746859253       17.5272035454        8.0462026633
  H         2.2656856809       16.5375696279        9.4339695619
  H         2.4324776349       18.3908126737       10.9496424367
  O         1.2191889356       11.9819320584       10.5043030553
  C         2.3480306592       12.5897862332       10.0600200607
  O         2.1645926813       13.9414370022        9.8654538309
  C         0.7334886364       14.2237909367       10.0301936602
  C         0.2075286335       12.9980746186       10.7887452291
  O         3.3979335228       11.9921278584        9.8571563071
  H         0.1689673643       13.1375734035       11.8882211574
  H         0.6300563630       15.1675454997       10.5984793909
  H         0.2851204581       14.3074370358        9.0206998976
  H        -0.7693537576       12.6443694349       10.4119759793
  O        14.2560188560        3.8526785506       11.6882878874
  C        13.4445831879        4.6515979656       12.4240161855
  O        12.8331024795        3.9654925465       13.4388834440
  C        13.1203614053        2.5335171854       13.2698305496
  C        14.2762190502        2.5050195989       12.2592292172
  O        13.2940833087        5.8459764695       12.1777968092
  H        15.2629162188        2.3534954269       12.7388830714
  H        13.4128374300        2.1140335716       14.2474690940
  H        12.2002910165        2.0346905119       12.9051523294
  H        14.1231870977        1.7751493396       11.4436377566
  O         8.3879488184       13.7630700744        8.9423136412
  C         7.8840495229       13.3695915896       10.1476498919
  O         6.5203708895       13.3004514368       10.1310304112
  C         6.0378505418       13.6603922413        8.7924462239
  C         7.3207913368       13.6773649338        7.9413977336
  O         8.5757953298       13.1226741727       11.1323669004
  H         7.4682997815       12.7373952931        7.3703313129
  H         5.3148678177       12.8816598458        8.4866238335
  H         5.5445190416       14.6495635176        8.8743966263
  H         7.4049852731       14.5545438065        7.2719054847
  O         6.0388833007        2.9228945471        6.8062420614
  C         5.5771540542        3.9995089549        6.1057314104
  O         5.2644633509        5.0337973732        6.9272018506
  C         5.2691771583        4.5501652788        8.3059896010
  C         6.1397881841        3.2896671336        8.2189758630
  O         5.4765296600        4.0505543938        4.8834668026
  H         7.2124525248        3.4647225584        8.4408810268
  H         5.6969415089        5.3406920156        8.9482110257
  H         4.2202580659        4.3402644701        8.5979680627
  H         5.7528446547        2.4525495637        8.8286899402
  O         1.1330176764        5.0921537602       16.8562402034
  C         1.0556505741        5.4600355292       18.1592495965
  O         0.1883059404        6.5059546880       18.3342875331
  C        -0.5379359066        6.7146492404       17.0786000332
  C         0.3558495462        6.0258402658       16.0407827832
  O         1.6844885617        4.9168830583       19.0642713972
  H        -0.2177163533        5.4431379985       15.2975138718
  H        -1.5289815386        6.2230871930       17.1729274649
  H        -0.6687839489        7.7983497164       16.9025930147
  H         1.0574141984        6.7163808701       15.5325189436
  O         8.5851549074       14.7253064074       18.4234327932
  C         9.4067419471       15.6076654403       17.7733604745
  O         9.2496030227       16.8767608993       18.2228415851
  C         8.2158593539       16.9216249270       19.2481182344
  C         7.8278725738       15.4390395926       19.4513573386
  O        10.1804518905       15.2825868319       16.8736614223
  H         8.1342999082       15.0436568186       20.4394397243
  H         8.6538690310       17.3840472266       20.1515632760
  H         7.3845792828       17.5426764920       18.8595368339
  H         6.7515961736       15.2418325533       19.2780031595
  O        -0.0048171869       17.7425855357        8.9387339299
  C        -0.5525531948       18.4160986503       10.0073646330
  O        -1.7881643987       17.9370358310       10.3151958495
  C        -2.0933556230       16.8197292706        9.4239495006
  C        -1.0882972065       17.0015906516        8.2852133000
  O         0.0002882053       19.3367142980       10.5947484904
  H        -0.6913113041       16.0533518650        7.8800704652
  H        -1.9325941472       15.8845553723        9.9880097667
  H        -3.1505870514       16.9097726528        9.1160365129
  H        -1.4813946853       17.6301069536        7.4581958420
  O         7.6467090709       12.6329250212       16.0331131419
  C         6.5450801501       13.3653985926       16.3060459884
  O         5.9610645314       13.0185588999       17.4894269142
  C         6.6937812272       11.8807971227       18.0559913209
  C         7.9526263294       11.7809776188       17.1806964612
  O         6.1277132876       14.2495209849       15.5659842343
  H         8.8413985416       12.2050657583       17.6787912473
  H         6.9255057670       12.1229986053       19.1096909097
  H         6.0364177400       10.9934526464       17.9784878744
  H         8.1653482504       10.7656493729       16.8029027404
  O         4.3430411423        9.4301191349        4.9690663357
  C         5.3134150703       10.1614921392        5.5949663389
  O         6.4041238434       10.3652245682        4.7928597143
  C         6.1199507019        9.7869990990        3.4725602464
  C         4.8854276958        8.9086773121        3.7168308240
  O         5.1937455180       10.5805805280        6.7368238452
  H         4.1132944255        9.0104040891        2.9343781611
  H         5.9121607641       10.6295928682        2.7877517357
  H         7.0012561897        9.2093677928        3.1419720924
  H         5.1510332667        7.8411318149        3.8682397981
  O         2.3731596548       17.3618086230       17.6207052156
  C         3.0565499182       17.0830135353       18.7668569752
  O         4.2289803292       16.4321285449       18.5253238289
  C         4.4757652780       16.4044219032       17.0827603669
  C         3.2252103134       17.0645389065       16.4677024834
  O         2.6391029345       17.3545111845       19.8920395903
  H         3.4322825407       18.0286731098       15.9667090745
  H         5.3964578659       16.9930988908       16.8991913274
  H         4.6018660100       15.3515916520       16.7835548287
  H         2.6527861703       16.3853316201       15.8084833440
  O         1.8836403320        2.5425537482        4.6073665663
  C         2.3261959295        1.9966395782        5.7810722379
  O         1.7930532512        0.7552116059        5.9902252441
  C         1.0079445342        0.3622560229        4.8202492638
  C         0.8305134090        1.6854811795        4.0579051676
  O         3.1099994474        2.5438821434        6.5429016289
  H         1.0076775217        1.5770647905        2.9714661609
  H         1.5939327261       -0.3839661760        4.2487171657
  H         0.0524058635       -0.0705145898        5.1723423282
  H        -0.1434976989        2.1680137371        4.2714141766
  O         6.6973778947        7.8260277200        8.2832150835
  C         7.1692607866        9.0461309966        8.6720864423
  O         8.1136688278        9.5254099216        7.8230190448
  C         8.4538093735        8.4878384565        6.8524130332
  C         7.3158398650        7.4637177872        7.0083310590
  O         6.7889628386        9.6283616905        9.6770583325
  H         6.5448142543        7.5331672222        6.2171975140
  H         8.4972506325        8.9451397675        5.8472885647
  H         9.4433792910        8.0720469131        7.1328928902
  H         7.6760743287        6.4203436459        7.0700131733
  O        10.6613712426       15.2922174595       13.6408507724
  C        10.5590810427       16.6066005345       14.0219053291
  O         9.2496647131       16.9799106838       14.1865405272
  C         8.3996349928       15.8673765266       13.7753758532
  C         9.3496077352       14.6659805203       13.8137745256
  O        11.5087603392       17.3575905833       14.1880612822
  H         9.3391311352       14.1557342292       14.7971211251
  H         7.5650278904       15.7724142678       14.4942932765
  H         8.0197971962       16.0822077537       12.7516200457
  H         9.1883378029       13.9561972018       12.9843969962
  O        16.0231348084        2.5313136053        6.4515576639
  C        14.7385436290        2.3480255935        6.8979293636
  O        14.4391952111        3.2074568074        7.9212205409
  C        15.6680250813        3.8867959295        8.3409471969
  C        16.6265093942        3.6540575659        7.1596022385
  O        13.9667104490        1.5141210199        6.4487297428
  H        16.6755659223        4.5128772945        6.4597386612
  H        15.4316018911        4.9519139084        8.5177434407
  H        16.0099979768        3.4243314506        9.2888976364
  H        17.6433886068        3.3611678476        7.4714276001
  O        11.0475351040        4.8168555272        7.0814176891
  C        10.4696377005        4.1797086167        8.1274675239
  O        11.0391308960        4.5276217922        9.3127421140
  C        12.1378653461        5.4666059054        9.0823571732
  C        12.1408824223        5.6645843503        7.5518234619
  O         9.5276506553        3.3991753985        8.0183088599
  H        11.9317655854        6.7050516207        7.2386675721
  H        11.9307006278        6.3986417133        9.6397734808
  H        13.0620953340        5.0015134481        9.4717564318
  H        13.0719143948        5.3121111046        7.0680081133
  O        -1.1330023428        7.8245922251       13.5473212716
  C        -0.7633271181        9.1429070517       13.6699464731
  O        -0.6568254926        9.7280146772       12.4408033308
  C        -0.8429023631        8.7262930974       11.4096949891
  C        -1.5116655992        7.5667934077       12.1590012823
  O        -0.5637251625        9.7096906515       14.7333769489
  H        -2.6182986250        7.5740189209       12.0874266549
  H        -1.4790336456        9.1693183515       10.6204356039
  H         0.1521905797        8.4560363677       10.9948135585
  H        -1.1288780392        6.5741013632       11.8607421663
  O        11.7280214979        9.7150939804       14.0955294726
  C        10.4565512309       10.0922457020       14.4227930770
  O         9.9041017464       10.8632880900       13.4509993163
  C        10.9713117700       11.3178911815       12.5602073994
  C        12.0657806236       10.2631604481       12.7734635912
  O         9.9055952080        9.8009343738       15.4772319516
  H        12.0131968372        9.4376994442       12.0359798779
  H        10.5572924563       11.3552796348       11.5401929104
  H        11.2812591331       12.3341581213       12.8835276484
  H        13.0868317177       10.6914605736       12.8259523887
  O         9.0621584005        7.2624415389        9.8678274595
  C         9.5732319419        8.1090767528       10.8216650644
  O         9.5305179081        7.5466475465       12.0656795638
  C         9.1504320560        6.1383011812       11.9176252892
  C         8.4290664311        6.1373861324       10.5688735445
  O         9.9972779279        9.2333095601       10.5918627802
  H         8.5960904348        5.2163327758        9.9816323250
  H        10.0829780412        5.5358598123       11.9099300441
  H         8.5211296554        5.8508435026       12.7796470859
  H         7.3445218580        6.3537372950       10.6566416710
  O         2.2627254599        6.5187955778        6.0809759673
  C         1.5961699013        7.6988523471        5.9787185630
  O         1.1384630345        7.9217043715        4.7046130439
  C         1.4844992492        6.7734864888        3.8716546934
  C         2.4550729490        5.9576998349        4.7476783147
  O         1.4093297108        8.4775259361        6.9090980803
  H         2.2209703378        4.8790381291        4.7881987603
  H         0.5492840174        6.2274583522        3.6392372374
  H         1.9328230491        7.1452254300        2.9321040209
  H         3.5227515706        6.0869958424        4.4761330993
  O         6.7777449011       17.1772114086        6.2554661729
  C         7.3924645882       17.5263731832        5.0915642718
  O         6.5090022034       17.7370587404        4.0688301645
  C         5.1543382465       17.7516470301        4.6181690697
  C         5.3283154422       17.1964057511        6.0488536560
  O         8.6054156520       17.6380997121        4.9704201791
  H         4.8893344354       17.8639195705        6.8143420658
  H         4.8143315952       18.8081581607        4.6173625387
  H         4.5072975892       17.1334197524        3.9678934941
  H         4.9611328160       16.1581705384        6.1532445326
  O         0.9397584687       12.6452863561       15.7540533116
  C         1.5322628092       13.7729168043       16.2246171245
  O         0.7568607273       14.8868700319       16.0293761700
  C        -0.3449384022       14.4985196190       15.1269685288
  C        -0.4290787121       12.9850044793       15.3358515303
  O         2.6343843325       13.7805035345       16.7703945894
  H        -1.1169044543       12.6970851633       16.1588659822
  H        -1.2547806532       15.0510825608       15.4187962789
  H        -0.0446787514       14.7873259318       14.0996101941
  H        -0.6774864099       12.4067370922       14.4301797492
  O        11.7023009256       15.7606361035        4.6061192673
  C        11.3500945857       16.1408674998        3.3508942019
  O        11.5134862313       17.4681688181        3.1418447838
  C        11.8668314302       18.0978798689        4.4219198190
  C        12.3534323492       16.9080440734        5.2587908348
  O        10.9447952359       15.3700627455        2.4847213989
  H        13.4517819906       16.7643745826        5.1950731131
  H        12.6457627443       18.8559226587        4.2342751461
  H        10.9449365513       18.5612800164        4.8250645190
  H        12.0409818585       16.9294959260        6.3170009353
  O         5.6558224598       11.2252319385       13.9080107717
  C         6.0014776466       10.1350568567       14.6436215352
  O         6.8869280838        9.3370117341       13.9994697762
  C         6.9820713705        9.7850887751       12.6109919587
  C         6.4249788340       11.2122127186       12.6620249771
  O         5.5666463875        9.9064350787       15.7664513446
  H         7.2195209014       11.9786612211       12.7423997355
  H         8.0389426438        9.7484456571       12.3029492130
  H         6.3684019693        9.1038185814       11.9913954698
  H         5.7464394789       11.4438157473       11.8203725098
  O         8.5866942134        4.9052764190        5.0675477958
  C         8.1812804325        5.5960375712        3.9685327280
  O         8.1193888549        4.8026616874        2.8579681638
  C         8.3861994145        3.4163858692        3.2645059470
  C         9.0395565752        3.5786636576        4.6445096424
  O         7.9200735815        6.7938536428        3.9630512151
  H         8.7010368866        2.8452397657        5.3984781500
  H         7.4141610991        2.8847279061        3.3170831393
  H         9.0485158162        2.9531098544        2.5102091198
  H        10.1481166060        3.6000511540        4.5999397405
  O         5.0184297318        2.9334309068       13.0758559319
  C         5.8323643840        3.5703760384       12.1771975484
  O         6.9959505335        2.9110947069       11.9807999594
  C         7.0887003538        1.7960083777       12.9236959487
  C         5.6622506561        1.6884754724       13.5037244033
  O         5.5570688719        4.6246962488       11.6109560664
  H         5.0794093864        0.8514878955       13.0680087692
  H         7.3908653754        0.8992809512       12.3519274214
  H         7.8520896027        2.0590603663       13.6837494549
  H         5.6428070401        1.6583092494       14.6112960934
  O        16.4217202417        1.8877644225       14.9216277399
  C        16.0139477741        2.8404601888       15.7883791833
  O        16.5111481724        2.6411767273       17.0451167517
  C        17.2825588431        1.3937605785       17.0596744396
  C        17.4174063729        1.0294072759       15.5685734433
  O        15.2830550694        3.7799011710       15.4819509652
  H        18.4079004025        1.2949772574       15.1544284766
  H        18.2609553107        1.5944555012       17.5360381808
  H        16.7115482630        0.6492288694       17.6503111204
  H        17.1485426764       -0.0169794499       15.3422064862
  O         3.8630335081       15.9490827872       12.2547885829
  C         2.5949297199       15.6602795331       12.6723167343
  O         2.5394177902       14.4351087557       13.2691951827
  C         3.8391248107       13.7724128151       13.1704653119
  C         4.7775925317       14.9005239933       12.7087226627
  O         1.6258183262       16.4017034959       12.5265939026
  H         5.3796986758       15.3074480376       13.5437107971
  H         4.1018304035       13.3692848170       14.1651985280
  H         3.7464769497       12.9486920583       12.4351680479
  H         5.4249338421       14.6159815570       11.8583169562
  O        11.8914375084        7.2670696063        4.6077504903
  C        12.7692699299        8.3049928525        4.6638261748
  O        13.1061515240        8.7660245907        3.4222330928
  C        12.4523269530        7.9336315196        2.4132056466
  C        11.4734153740        7.0608274974        3.2232896554
  O        13.2073461455        8.7765308311        5.7096359026
  H        10.4203127690        7.3950322860        3.1369396266
  H        11.9599519126        8.6010054032        1.6851118571
  H        13.2420602937        7.3473737902        1.9094459244
  H        11.5627041619        5.9787468099        2.9981726011
  O         3.6742079261       14.7252962811        3.5040900839
  C         4.8220452901       14.0565622184        3.7804156747
  O         4.9182721847       12.9171515981        3.0396398742
  C         3.8067906344       12.8556977404        2.0845231167
  C         2.8578553931       13.9555362759        2.5735881629
  O         5.6575543612       14.4293453217        4.6000537970
  H         2.5407629971       14.6247221582        1.7550617840
  H         4.2026410241       13.0629304494        1.0753971962
  H         3.3666097618       11.8462886986        2.1441647241
  H         1.9901322479       13.5591063481        3.1336960717
  O         0.8599915383       12.3543861095        7.1789248975
  C         0.7700600389       13.3236933543        6.2288661825
  O         1.8805106461       13.3916772763        5.4432117703
  C         2.8483930571       12.4028292836        5.9185524961
  C         2.0084858133       11.4978893787        6.8233503072
  O        -0.1962365068       14.0643596758        6.0846996019
  H         1.6111069498       10.6091502805        6.3002264705
  H         3.2432998963       11.8668383045        5.0374634419
  H         3.6597376727       12.9418614127        6.4482101717
  H         2.5297499020       11.1957554168        7.7469353279
  O         6.1348144920        3.5795742374       18.3288990919
  C         5.7705880611        2.3080948182       17.9831857379
  O         4.7069302512        1.8803298661       18.7065559733
  C         4.1755459656        2.9668873939       19.5185721035
  C         5.1924769872        4.1089764931       19.3162891531
  O         6.3303353748        1.6106309661       17.1415396704
  H         4.7348773004        5.0293051437       18.9023554376
  H         3.1681023741        3.2203396987       19.1400528358
  H         4.1163447348        2.6245245892       20.5693315554
  H         5.7549418907        4.3583823460       20.2326206008
  O        12.6173624104       11.8942121369        0.6569950355
  C        13.8167631551       12.4282237436        0.3144856583
  O        13.8754093211       12.7353361883       -1.0106056461
  C        12.6885204011       12.2089742655       -1.6660623153
  C        11.7229101226       11.9669741742       -0.4937392909
  O        14.7248606970       12.6426948049        1.1116198955
  H        11.0279086853       12.8188288368       -0.3351147721
  H        12.3263733733       12.9724985870       -2.3834343116
  H        12.9775823255       11.2782989778       -2.1919536681
  H        11.1705445178       11.0129467312       -0.5685726572
  O         7.7383468268        6.4177016229       -1.9325287228
  C         8.7646751714        5.5324110133       -1.8197829077
  O         9.4354755710        5.6677364471       -0.6410847203
  C         8.9737898901        6.8974496892        0.0156871355
  C         7.6448343000        7.1996311596       -0.6941634602
  O         9.0561375236        4.7067757901       -2.6777185889
  H         6.7568178270        6.8499863554       -0.1326330214
  H         8.8527879821        6.6915140655        1.0945040630
  H         9.7410657138        7.6799738849       -0.1549718975
  H         7.5109797604        8.2593010894       -0.9778469808
  O        -0.5547040734       10.4767894227        3.8585684139
  C         0.4340770808       10.3328630680        2.9248561931
  O         0.0917408201        9.4462624787        1.9441309126
  C        -1.2523134257        8.9312567045        2.2083936654
  C        -1.7484548123        9.7673684276        3.4031987492
  O         1.5009892398       10.9379932353        2.9529412598
  H        -2.5029259805       10.5225493663        3.1039785000
  H        -1.8675595653        9.0866143954        1.3009608689
  H        -1.1613311784        7.8549835332        2.4398864816
  H        -2.1261844023        9.1459202920        4.2352789709
  O        10.5431808324       -0.5698468341       10.6718504560
  C        11.6821921845       -0.1104698978       10.0809558171
  O        11.5030745280        0.1849602023        8.7608163238
  C        10.0672773628        0.0656342446        8.4631830837
  C         9.5585206974       -0.8185226907        9.6070516208
  O        12.7434625490        0.0053519060       10.6833599388
  H         8.5552806726       -0.5375402905        9.9785129002
  H         9.6434820648        1.0909536322        8.4617318153
  H         9.9496480688       -0.4030574376        7.4677080551
  H         9.6006720391       -1.8971490640        9.3544996330
  O        14.5198794269       14.5250455964        6.7130124730
  C        14.9798892284       13.6751287804        7.6687993416
  O        14.9085398518       12.3693365093        7.2770660295
  C        14.5905366134       12.3441693309        5.8548400970
  C        13.9630882135       13.7272085644        5.6240762066
  O        15.3827401361       14.0478319429        8.7612801388
  H        14.2583253168       14.1988458808        4.6690888615
  H        15.5420945677       12.2087247694        5.2995158044
  H        13.9114842810       11.4878588730        5.6721674715
  H        12.8582674562       13.7445351400        5.7200091590
  O         9.5262973911       11.4993792089        2.2154609737
  C         9.6091881329       10.2043259779        2.6519618220
  O        10.3804052739       10.1020412073        3.7766218844
  C        11.0606361426       11.3932538691        3.9564538596
  C        10.1145857343       12.3580488672        3.2490694573
  O         9.0612385856        9.2516177332        2.1126653791
  H         9.2920871788       12.7047169916        3.9112489745
  H        11.1557038266       11.5885758678        5.0385270675
  H        12.0501905405       11.3187114956        3.4569686186
  H        10.6041821973       13.2212186346        2.7630319779
  O        13.4918823065       17.7416349057       16.7622802111
  C        14.2862385942       16.8114600541       16.1557825399
  O        14.3326009994       15.6534043767       16.8691431533
  C        13.3120690457       15.7114673404       17.9135299144
  C        13.0188326872       17.2127914821       18.0391437790
  O        14.9026136381       16.9853034337       15.1138760447
  H        11.9409040681       17.4341901377       18.1402459476
  H        12.4239565758       15.1483402512       17.5656172287
  H        13.7260436267       15.2520097510       18.8296998734
  H        13.5913658792       17.7123168804       18.8473785125
  O        12.6256528131        7.6305194120       17.0416581356
  C        13.6627725545        8.5043895160       16.9099036534
  O        14.4371737883        8.2062127247       15.8385361668
  C        13.7971165569        7.1450127734       15.0600455208
  C        12.7449130718        6.5822053450       16.0274636993
  O        13.8706672699        9.4303199512       17.6860530634
  H        11.7532094146        6.4324151926       15.5619239840
  H        13.3524005254        7.5991445690       14.1547156100
  H        14.5690594074        6.4068378461       14.7771256313
  H        13.0698317621        5.6515894093       16.5358866416
  O        15.7586547363        4.2368432093        3.9587019256
  C        15.4485852971        5.5425660807        3.7540150782
  O        15.0009271918        5.7600890978        2.4847754774
  C        14.8536633260        4.4667804543        1.8083766117
  C        15.7031826244        3.5330766898        2.6726049055
  O        15.5650642300        6.4166061315        4.6052198590
  H        15.2570160122        2.5367904633        2.8389224437
  H        13.7800080773        4.2028695996        1.8220251800
  H        15.2230971559        4.5599401574        0.7705955518
  H        16.7437503447        3.4320979206        2.2986511150
  O        12.2624552282        3.4945039065       17.6727063430
  C        11.6116233408        2.9445758877       18.7318491364
  O        10.6510073391        2.0736233474       18.3412350330
  C        10.4727566231        2.1707983126       16.8894031734
  C        11.7539527849        2.8844131630       16.4371721599
  O        11.8826354007        3.2075397791       19.9032557097
  H        12.5279937947        2.1796944381       16.0828684763
  H        10.3698074379        1.1463696818       16.4853691041
  H         9.5535820757        2.7592055296       16.6981196298
  H        11.5672828288        3.6852949698       15.6992034809
  O        15.0819598133       14.7150794712       12.8871258540
  C        14.6610572692       13.4692395329       12.5283916637
  O        13.5780737109       13.4960331571       11.7055270293
  C        13.2458867793       14.8911801075       11.4053516384
  C        14.0670075954       15.6837218088       12.4381125679
  O        15.1951631947       12.4324462989       12.9021050027
  H        14.5888380450       16.5631047980       12.0258865514
  H        13.5364857270       15.0720411061       10.3530663115
  H        12.1559793226       15.0200967224       11.5336732586
  H        13.4722173206       15.9949815767       13.3172519492
  O         3.0160405379        8.2120260824       16.8582146747
  C         3.9061211918        8.5886602583       17.8151476606
  O         3.7736694718        9.9012004239       18.1504327232
  C         2.8439591198       10.5375527353       17.2142163649
  C         2.1259501229        9.3457599427       16.5697215520
  O         4.7151417715        7.8276168760       18.3379212922
  H         1.1512994937        9.1361249756       17.0526797283
  H         2.1680675402       11.1891687914       17.7947290285
  H         3.4451399729       11.1324241083       16.5015883029
  H         2.0108043840        9.4244635469       15.4747359553
  O         4.3341610367        3.6943288100       16.1166425699
  C         3.2169443086        3.4450158058       15.3826144889
  O         2.8334272792        4.5270282833       14.6489919756
  C         3.8799757972        5.5481261319       14.7354913846
  C         4.7019556297        5.1015370297       15.9504880141
  O         2.6397219514        2.3645979062       15.3825549243
  H         5.7926454710        5.1563752445       15.7887694345
  H         4.4524871278        5.5223732260       13.7855134967
  H         3.4001293592        6.5349551182       14.8641550129
  H         4.4197926792        5.6487037579       16.8723109219
  O        14.8113843721        9.7095819819        8.2945791657
  C        14.1223971243        8.6155789990        8.7299222690
  O        14.8082593860        7.4563919739        8.4775176733
  C        15.9865043769        7.7560765665        7.6581596794
  C        16.0679396254        9.2974579783        7.6791298097
  O        13.0367952900        8.6734625209        9.2984344353
  H        16.9031800661        9.6934292078        8.2905338672
  H        16.8643865905        7.2617725599        8.1191149527
  H        15.8035026308        7.3500076919        6.6449824409
  H        16.1215335768        9.7408276071        6.6673310007